# vtk DataFile Version 2.0
Volume example
ASCII
DATASET STRUCTURED_POINTS
DIMENSIONS 100 100 1
ASPECT_RATIO 1 1 1
ORIGIN 0 0 0
POINT_DATA 10000
SCALARS volume_scalars char 1
LOOKUP_TABLE default
-2432 -2351 -2271 -2193 -2117 -2043 -1972 -1903 -1836 -1773 -1712 -1655 -1600 -1549 -1501 -1456 -1414 -1375 -1340 -1308 -1278 -1252 -1228 -1207 -1187 -1171 -1156 -1143 -1131 -1121 -1112 -1105 -1099 -1093 -1088 -1084 -1081 -1078 -1075 -1073 -1071 -1070 -1069 -1068 -1067 -1066 -1066 -1065 -1065 -1065 -1065 -1065 -1065 -1066 -1066 -1067 -1068 -1069 -1070 -1071 -1073 -1075 -1078 -1081 -1084 -1088 -1093 -1099 -1105 -1112 -1121 -1131 -1143 -1156 -1171 -1187 -1207 -1228 -1252 -1278 -1308 -1340 -1375 -1414 -1456 -1501 -1549 -1600 -1655 -1712 -1773 -1836 -1903 -1972 -2043 -2117 -2193 -2271 -2351 -2432 -2369 -2287 -2206 -2128 -2052 -1978 -1907 -1838 -1771 -1708 -1648 -1591 -1537 -1486 -1438 -1394 -1353 -1316 -1281 -1250 -1222 -1196 -1173 -1153 -1135 -1119 -1105 -1093 -1082 -1073 -1065 -1058 -1052 -1047 -1043 -1039 -1036 -1033 -1031 -1029 -1028 -1027 -1026 -1025 -1024 -1023 -1023 -1023 -1023 -1022 -1022 -1023 -1023 -1023 -1023 -1024 -1025 -1026 -1027 -1028 -1029 -1031 -1033 -1036 -1039 -1043 -1047 -1052 -1058 -1065 -1073 -1082 -1093 -1105 -1119 -1135 -1153 -1173 -1196 -1222 -1250 -1281 -1316 -1353 -1394 -1438 -1486 -1537 -1591 -1648 -1708 -1771 -1838 -1907 -1978 -2052 -2128 -2206 -2287 -2369 -2306 -2224 -2143 -2064 -1988 -1914 -1842 -1773 -1707 -1644 -1584 -1528 -1474 -1424 -1377 -1334 -1294 -1257 -1224 -1193 -1166 -1141 -1120 -1100 -1083 -1068 -1055 -1044 -1034 -1025 -1018 -1012 -1006 -1002  -998  -995  -992  -990  -988  -986  -985  -984  -983  -983  -982  -982  -981  -981  -981  -981  -981  -981  -981  -981  -982  -982  -983  -983  -984  -985  -986  -988  -990  -992  -995  -998 -1002 -1006 -1012 -1018 -1025 -1034 -1044 -1055 -1068 -1083 -1100 -1120 -1141 -1166 -1193 -1224 -1257 -1294 -1334 -1377 -1424 -1474 -1528 -1584 -1644 -1707 -1773 -1842 -1914 -1988 -2064 -2143 -2224 -2306 -2244 -2161 -2080 -2001 -1925 -1851 -1779 -1710 -1644 -1581 -1522 -1465 -1412 -1363 -1317 -1274 -1235 -1200 -1167 -1138 -1112 -1088 -1067 -1049 -1033 -1019 -1006  -996  -987  -979  -972  -967  -962  -958  -955  -952  -949  -947  -946  -945  -943  -943  -942  -941  -941  -941  -940  -940  -940  -940  -940  -940  -940  -940  -941  -941  -941  -942  -943  -943  -945  -946  -947  -949  -952  -955  -958  -962  -967  -972  -979  -987  -996 -1006 -1019 -1033 -1049 -1067 -1088 -1112 -1138 -1167 -1200 -1235 -1274 -1317 -1363 -1412 -1465 -1522 -1581 -1644 -1710 -1779 -1851 -1925 -2001 -2080 -2161 -2244 -2183 -2100 -2018 -1939 -1862 -1788 -1716 -1648 -1582 -1519 -1460 -1404 -1352 -1303 -1258 -1216 -1178 -1143 -1112 -1084 -1058 -1036 -1016  -999  -984  -970  -959  -949  -941  -934  -928  -923  -919  -915  -912  -910  -908  -906  -905  -904  -903  -902  -901  -901  -901  -900  -900  -900  -900  -900  -900  -900  -900  -900  -900  -901  -901  -901  -902  -903  -904  -905  -906  -908  -910  -912  -915  -919  -923  -928  -934  -941  -949  -959  -970  -984  -999 -1016 -1036 -1058 -1084 -1112 -1143 -1178 -1216 -1258 -1303 -1352 -1404 -1460 -1519 -1582 -1648 -1716 -1788 -1862 -1939 -2018 -2100 -2183 -2123 -2039 -1957 -1878 -1801 -1726 -1655 -1586 -1521 -1458 -1399 -1344 -1292 -1244 -1200 -1159 -1122 -1088 -1058 -1031 -1006  -985  -966  -950  -936  -923  -913  -904  -896  -890  -884  -880  -876  -873  -871  -869  -867  -865  -864  -864  -863  -862  -862  -862  -861  -861  -861  -861  -861  -861  -861  -861  -861  -861  -861  -861  -862  -862  -862  -863  -864  -864  -865  -867  -869  -871  -873  -876  -880  -884  -890  -896  -904  -913  -923  -936  -950  -966  -985 -1006 -1031 -1058 -1088 -1122 -1159 -1200 -1244 -1292 -1344 -1399 -1458 -1521 -1586 -1655 -1726 -1801 -1878 -1957 -2039 -2123 -2063 -1979 -1897 -1817 -1740 -1666 -1594 -1525 -1460 -1398 -1340 -1285 -1234 -1187 -1143 -1103 -1067 -1034 -1005  -979  -956  -935  -917  -902  -889  -877  -868  -859  -853  -847  -842  -838  -835  -832  -830  -828  -827  -826  -825  -824  -824  -824  -823  -823  -823  -823  -823  -823  -823  -822  -822  -823  -823  -823  -823  -823  -823  -823  -824  -824  -824  -825  -826  -827  -828  -830  -832  -835  -838  -842  -847  -853  -859  -868  -877  -889  -902  -917  -935  -956  -979 -1005 -1034 -1067 -1103 -1143 -1187 -1234 -1285 -1340 -1398 -1460 -1525 -1594 -1666 -1740 -1817 -1897 -1979 -2063 -2005 -1920 -1838 -1758 -1680 -1606 -1534 -1466 -1401 -1339 -1281 -1227 -1177 -1130 -1087 -1048 -1013  -981  -953  -928  -906  -887  -870  -855  -843  -833  -824  -816  -810  -805  -801  -797  -795  -792  -791  -789  -788  -787  -787  -786  -786  -786  -785  -785  -785  -785  -785  -785  -785  -785  -785  -785  -785  -785  -785  -785  -785  -785  -786  -786  -786  -787  -787  -788  -789  -791  -792  -795  -797  -801  -805  -810  -816  -824  -833  -843  -855  -870  -887  -906  -928  -953  -981 -1013 -1048 -1087 -1130 -1177 -1227 -1281 -1339 -1401 -1466 -1534 -1606 -1680 -1758 -1838 -1920 -2005 -1947 -1862 -1779 -1699 -1621 -1547 -1475 -1407 -1342 -1281 -1223 -1170 -1120 -1074 -1033  -995  -960  -930  -903  -879  -858  -839  -824  -810  -799  -789  -781  -774  -769  -764  -761  -758  -755  -754  -752  -751  -750  -750  -749  -749  -749  -749  -749  -749  -749  -749  -749  -749  -749  -749  -749  -749  -749  -749  -749  -749  -749  -749  -749  -749  -749  -749  -750  -750  -751  -752  -754  -755  -758  -761  -764  -769  -774  -781  -789  -799  -810  -824  -839  -858  -879  -903  -930  -960  -995 -1033 -1074 -1120 -1170 -1223 -1281 -1342 -1407 -1475 -1547 -1621 -1699 -1779 -1862 -1947 -1890 -1805 -1722 -1641 -1563 -1489 -1417 -1349 -1284 -1224 -1167 -1114 -1065 -1020  -979  -942  -909  -880  -853  -830  -811  -793  -779  -766  -756  -747  -739  -733  -729  -725  -722  -719  -717  -716  -715  -714  -713  -713  -713  -713  -713  -713  -713  -713  -713  -713  -713  -713  -713  -713  -713  -713  -713  -713  -713  -713  -713  -713  -713  -713  -713  -713  -713  -713  -714  -715  -716  -717  -719  -722  -725  -729  -733  -739  -747  -756  -766  -779  -793  -811  -830  -853  -880  -909  -942  -979 -1020 -1065 -1114 -1167 -1224 -1284 -1349 -1417 -1489 -1563 -1641 -1722 -1805 -1890 -1834 -1748 -1665 -1584 -1506 -1432 -1360 -1292 -1228 -1168 -1111 -1059 -1011  -967  -927  -891  -859  -830  -805  -784  -765  -749  -735  -723  -714  -706  -699  -694  -689  -686  -683  -682  -680  -679  -678  -678  -677  -677  -677  -677  -677  -677  -678  -678  -678  -678  -678  -678  -678  -678  -678  -678  -678  -678  -678  -678  -678  -678  -677  -677  -677  -677  -677  -677  -678  -678  -679  -680  -682  -683  -686  -689  -694  -699  -706  -714  -723  -735  -749  -765  -784  -805  -830  -859  -891  -927  -967 -1011 -1059 -1111 -1168 -1228 -1292 -1360 -1432 -1506 -1584 -1665 -1748 -1834 -1779 -1693 -1609 -1528 -1450 -1375 -1304 -1236 -1172 -1113 -1057 -1005  -958  -915  -876  -841  -810  -783  -759  -738  -720  -705  -692  -682  -673  -666  -660  -655  -651  -649  -647  -645  -644  -643  -643  -642  -642  -642  -643  -643  -643  -643  -643  -644  -644  -644  -644  -644  -644  -644  -644  -644  -644  -644  -644  -644  -644  -643  -643  -643  -643  -643  -642  -642  -642  -643  -643  -644  -645  -647  -649  -651  -655  -660  -666  -673  -682  -692  -705  -720  -738  -759  -783  -810  -841  -876  -915  -958 -1005 -1057 -1113 -1172 -1236 -1304 -1375 -1450 -1528 -1609 -1693 -1779 -1725 -1638 -1554 -1473 -1395 -1320 -1249 -1181 -1118 -1059 -1003  -953  -906  -864  -826  -792  -762  -736  -713  -694  -677  -663  -651  -641  -633  -627  -622  -618  -615  -612  -611  -609  -609  -608  -608  -608  -608  -609  -609  -609  -609  -610  -610  -610  -611  -611  -611  -611  -611  -611  -611  -611  -611  -611  -611  -611  -610  -610  -610  -609  -609  -609  -609  -608  -608  -608  -608  -609  -609  -611  -612  -615  -618  -622  -627  -633  -641  -651  -663  -677  -694  -713  -736  -762  -792  -826  -864  -906  -953 -1003 -1059 -1118 -1181 -1249 -1320 -1395 -1473 -1554 -1638 -1725 -1671 -1585 -1500 -1419 -1341 -1266 -1195 -1128 -1065 -1006  -951  -901  -856  -814  -777  -745  -716  -691  -669  -650  -635  -622  -611  -602  -595  -589  -585  -581  -579  -577  -576  -575  -575  -575  -575  -575  -575  -576  -576  -576  -577  -577  -578  -578  -578  -579  -579  -579  -579  -579  -579  -579  -579  -579  -579  -578  -578  -578  -577  -577  -576  -576  -576  -575  -575  -575  -575  -575  -575  -576  -577  -579  -581  -585  -589  -595  -602  -611  -622  -635  -650  -669  -691  -716  -745  -777  -814  -856  -901  -951 -1006 -1065 -1128 -1195 -1266 -1341 -1419 -1500 -1585 -1671 -1619 -1532 -1447 -1366 -1288 -1213 -1142 -1075 -1012  -954  -900  -851  -806  -766  -730  -698  -671  -647  -626  -609  -594  -582  -572  -564  -557  -553  -549  -546  -544  -543  -542  -542  -542  -542  -542  -542  -543  -544  -544  -545  -545  -546  -546  -547  -547  -547  -547  -548  -548  -548  -548  -548  -548  -547  -547  -547  -547  -546  -546  -545  -545  -544  -544  -543  -542  -542  -542  -542  -542  -542  -543  -544  -546  -549  -553  -557  -564  -572  -582  -594  -609  -626  -647  -671  -698  -730  -766  -806  -851  -900  -954 -1012 -1075 -1142 -1213 -1288 -1366 -1447 -1532 -1619 -1568 -1480 -1395 -1314 -1235 -1161 -1090 -1023  -961  -903  -850  -802  -758  -719  -684  -653  -627  -604  -584  -568  -554  -543  -534  -527  -521  -517  -514  -512  -510  -510  -509  -509  -509  -510  -510  -511  -512  -512  -513  -514  -514  -515  -516  -516  -516  -517  -517  -517  -517  -517  -517  -517  -517  -517  -517  -516  -516  -516  -515  -514  -514  -513  -512  -512  -511  -510  -510  -509  -509  -509  -510  -510  -512  -514  -517  -521  -527  -534  -543  -554  -568  -584  -604  -627  -653  -684  -719  -758  -802  -850  -903  -961 -1023 -1090 -1161 -1235 -1314 -1395 -1480 -1568 -1518 -1430 -1345 -1263 -1184 -1110 -1039  -973  -911  -854  -802  -754  -711  -673  -639  -610  -584  -562  -544  -529  -516  -506  -498  -491  -486  -483  -480  -479  -478  -477  -477  -478  -478  -479  -480  -481  -481  -482  -483  -484  -485  -485  -486  -486  -487  -487  -487  -488  -488  -488  -488  -488  -488  -487  -487  -487  -486  -486  -485  -485  -484  -483  -482  -481  -481  -480  -479  -478  -478  -477  -477  -478  -479  -480  -483  -486  -491  -498  -506  -516  -529  -544  -562  -584  -610  -639  -673  -711  -754  -802  -854  -911  -973 -1039 -1110 -1184 -1263 -1345 -1430 -1518 -1468 -1380 -1295 -1213 -1134 -1060  -990  -924  -862  -806  -754  -708  -666  -628  -596  -567  -543  -522  -505  -491  -479  -470  -462  -457  -453  -450  -448  -447  -446  -446  -447  -447  -448  -449  -450  -451  -452  -453  -454  -455  -456  -456  -457  -458  -458  -458  -459  -459  -459  -459  -459  -459  -459  -459  -458  -458  -458  -457  -456  -456  -455  -454  -453  -452  -451  -450  -449  -448  -447  -447  -446  -446  -447  -448  -450  -453  -457  -462  -470  -479  -491  -505  -522  -543  -567  -596  -628  -666  -708  -754  -806  -862  -924  -990 -1060 -1134 -1213 -1295 -1380 -1468 -1420 -1332 -1246 -1164 -1085 -1011  -941  -875  -815  -759  -708  -662  -621  -585  -553  -526  -503  -483  -467  -454  -443  -435  -428  -424  -420  -418  -417  -416  -416  -416  -417  -418  -419  -420  -421  -423  -424  -425  -426  -427  -428  -428  -429  -430  -430  -430  -431  -431  -431  -431  -431  -431  -431  -431  -430  -430  -430  -429  -428  -428  -427  -426  -425  -424  -423  -421  -420  -419  -418  -417  -416  -416  -416  -417  -418  -420  -424  -428  -435  -443  -454  -467  -483  -503  -526  -553  -585  -621  -662  -708  -759  -815  -875  -941 -1011 -1085 -1164 -1246 -1332 -1420 -1373 -1284 -1198 -1116 -1038  -963  -894  -829  -768  -713  -663  -618  -578  -543  -513  -486  -464  -446  -431  -418  -409  -401  -395  -391  -389  -387  -386  -386  -387  -387  -388  -390  -391  -392  -394  -395  -396  -397  -398  -399  -400  -401  -402  -403  -403  -403  -404  -404  -404  -404  -404  -404  -404  -404  -403  -403  -403  -402  -401  -400  -399  -398  -397  -396  -395  -394  -392  -391  -390  -388  -387  -387  -386  -386  -387  -389  -391  -395  -401  -409  -418  -431  -446  -464  -486  -513  -543  -578  -618  -663  -713  -768  -829  -894  -963 -1038 -1116 -1198 -1284 -1373 -1327 -1238 -1152 -1070  -991  -917  -848  -783  -723  -669  -620  -576  -537  -502  -473  -448  -427  -409  -395  -384  -375  -369  -364  -361  -358  -357  -357  -357  -358  -359  -361  -362  -364  -365  -367  -368  -370  -371  -372  -373  -374  -375  -376  -376  -377  -377  -378  -378  -378  -378  -378  -378  -378  -378  -377  -377  -376  -376  -375  -374  -373  -372  -371  -370  -368  -367  -365  -364  -362  -361  -359  -358  -357  -357  -357  -358  -361  -364  -369  -375  -384  -395  -409  -427  -448  -473  -502  -537  -576  -620  -669  -723  -783  -848  -917  -991 -1070 -1152 -1238 -1327 -1283 -1193 -1107 -1024  -946  -872  -803  -738  -679  -626  -577  -534  -496  -463  -435  -411  -391  -375  -361  -351  -343  -337  -333  -331  -329  -329  -329  -330  -331  -332  -334  -336  -337  -339  -341  -342  -344  -345  -347  -348  -349  -350  -350  -351  -352  -352  -353  -353  -353  -353  -353  -353  -353  -353  -352  -352  -351  -350  -350  -349  -348  -347  -345  -344  -342  -341  -339  -337  -336  -334  -332  -331  -330  -329  -329  -329  -331  -333  -337  -343  -351  -361  -375  -391  -411  -435  -463  -496  -534  -577  -626  -679  -738  -803  -872  -946 -1024 -1107 -1193 -1283 -1239 -1149 -1063  -980  -902  -828  -759  -695  -637  -584  -536  -494  -457  -425  -398  -375  -356  -341  -329  -319  -312  -307  -304  -302  -301  -301  -302  -303  -305  -306  -308  -310  -312  -314  -316  -318  -319  -321  -322  -323  -324  -325  -326  -327  -327  -328  -328  -328  -329  -329  -329  -329  -328  -328  -328  -327  -327  -326  -325  -324  -323  -322  -321  -319  -318  -316  -314  -312  -310  -308  -306  -305  -303  -302  -301  -301  -302  -304  -307  -312  -319  -329  -341  -356  -375  -398  -425  -457  -494  -536  -584  -637  -695  -759  -828  -902  -980 -1063 -1149 -1239 -1197 -1106 -1020  -937  -859  -785  -717  -653  -596  -543  -497  -455  -419  -389  -362  -341  -323  -308  -297  -289  -283  -279  -276  -275  -274  -275  -276  -278  -279  -281  -284  -286  -288  -290  -292  -294  -295  -297  -298  -300  -301  -302  -302  -303  -304  -304  -305  -305  -305  -305  -305  -305  -305  -305  -304  -304  -303  -302  -302  -301  -300  -298  -297  -295  -294  -292  -290  -288  -286  -284  -281  -279  -278  -276  -275  -274  -275  -276  -279  -283  -289  -297  -308  -323  -341  -362  -389  -419  -455  -497  -543  -596  -653  -717  -785  -859  -937 -1020 -1106 -1197 -1155 -1065  -978  -895  -817  -744  -676  -613  -556  -504  -458  -418  -383  -353  -328  -307  -291  -277  -267  -260  -254  -251  -249  -248  -249  -250  -251  -253  -255  -257  -260  -262  -264  -267  -269  -271  -272  -274  -275  -277  -278  -279  -280  -281  -281  -282  -282  -282  -283  -283  -283  -283  -282  -282  -282  -281  -281  -280  -279  -278  -277  -275  -274  -272  -271  -269  -267  -264  -262  -260  -257  -255  -253  -251  -250  -249  -248  -249  -251  -254  -260  -267  -277  -291  -307  -328  -353  -383  -418  -458  -504  -556  -613  -676  -744  -817  -895  -978 -1065 -1155 -1115 -1025  -938  -855  -777  -704  -636  -574  -517  -466  -422  -382  -348  -319  -295  -276  -260  -248  -238  -232  -227  -224  -223  -223  -224  -225  -227  -229  -232  -234  -237  -240  -242  -244  -247  -249  -250  -252  -254  -255  -256  -257  -258  -259  -259  -260  -260  -261  -261  -261  -261  -261  -261  -260  -260  -259  -259  -258  -257  -256  -255  -254  -252  -250  -249  -247  -244  -242  -240  -237  -234  -232  -229  -227  -225  -224  -223  -223  -224  -227  -232  -238  -248  -260  -276  -295  -319  -348  -382  -422  -466  -517  -574  -636  -704  -777  -855  -938 -1025 -1115 -1077  -986  -899  -816  -738  -665  -598  -536  -480  -430  -386  -348  -315  -287  -264  -245  -230  -219  -211  -205  -201  -199  -198  -199  -200  -202  -204  -207  -210  -212  -215  -218  -221  -223  -225  -227  -229  -231  -233  -234  -235  -236  -237  -238  -239  -239  -239  -240  -240  -240  -240  -240  -240  -239  -239  -239  -238  -237  -236  -235  -234  -233  -231  -229  -227  -225  -223  -221  -218  -215  -212  -210  -207  -204  -202  -200  -199  -198  -199  -201  -205  -211  -219  -230  -245  -264  -287  -315  -348  -386  -430  -480  -536  -598  -665  -738  -816  -899  -986 -1077 -1039  -948  -861  -778  -700  -628  -561  -500  -444  -395  -352  -315  -283  -256  -234  -216  -202  -192  -184  -179  -176  -175  -175  -176  -178  -180  -183  -185  -188  -191  -194  -197  -200  -203  -205  -207  -209  -211  -212  -214  -215  -216  -217  -218  -219  -219  -219  -220  -220  -220  -220  -220  -220  -219  -219  -219  -218  -217  -216  -215  -214  -212  -211  -209  -207  -205  -203  -200  -197  -194  -191  -188  -185  -183  -180  -178  -176  -175  -175  -176  -179  -184  -192  -202  -216  -234  -256  -283  -315  -352  -395  -444  -500  -561  -628  -700  -778  -861  -948 -1039 -1003  -912  -825  -742  -664  -592  -525  -465  -410  -362  -319  -283  -252  -226  -205  -188  -176  -166  -159  -155  -153  -152  -152  -154  -156  -159  -162  -165  -168  -171  -175  -178  -180  -183  -185  -188  -190  -192  -193  -195  -196  -197  -198  -199  -199  -200  -200  -201  -201  -201  -201  -201  -201  -200  -200  -199  -199  -198  -197  -196  -195  -193  -192  -190  -188  -185  -183  -180  -178  -175  -171  -168  -165  -162  -159  -156  -154  -152  -152  -153  -155  -159  -166  -176  -188  -205  -226  -252  -283  -319  -362  -410  -465  -525  -592  -664  -742  -825  -912 -1003  -969  -877  -790  -707  -629  -557  -491  -431  -377  -330  -288  -253  -222  -198  -178  -162  -150  -141  -135  -132  -130  -130  -131  -133  -136  -139  -142  -145  -149  -152  -156  -159  -162  -164  -167  -169  -171  -173  -175  -176  -178  -179  -180  -180  -181  -182  -182  -182  -183  -183  -183  -183  -182  -182  -182  -181  -180  -180  -179  -178  -176  -175  -173  -171  -169  -167  -164  -162  -159  -156  -152  -149  -145  -142  -139  -136  -133  -131  -130  -130  -132  -135  -141  -150  -162  -178  -198  -222  -253  -288  -330  -377  -431  -491  -557  -629  -707  -790  -877  -969  -936  -844  -756  -673  -596  -524  -459  -399  -346  -299  -258  -224  -195  -171  -152  -137  -126  -118  -113  -110  -109  -109  -111  -113  -116  -120  -123  -127  -131  -134  -138  -141  -144  -147  -149  -152  -154  -156  -157  -159  -160  -161  -162  -163  -164  -164  -165  -165  -165  -165  -165  -165  -165  -165  -164  -164  -163  -162  -161  -160  -159  -157  -156  -154  -152  -149  -147  -144  -141  -138  -134  -131  -127  -123  -120  -116  -113  -111  -109  -109  -110  -113  -118  -126  -137  -152  -171  -195  -224  -258  -299  -346  -399  -459  -524  -596  -673  -756  -844  -936  -904  -812  -724  -641  -564  -493  -428  -369  -316  -270  -230  -196  -168  -145  -127  -113  -103   -96   -91   -89   -89   -90   -92   -94   -98  -101  -105  -109  -113  -117  -121  -124  -127  -130  -133  -135  -137  -139  -141  -142  -144  -145  -146  -147  -147  -148  -148  -148  -149  -149  -149  -149  -148  -148  -148  -147  -147  -146  -145  -144  -142  -141  -139  -137  -135  -133  -130  -127  -124  -121  -117  -113  -109  -105  -101   -98   -94   -92   -90   -89   -89   -91   -96  -103  -113  -127  -145  -168  -196  -230  -270  -316  -369  -428  -493  -564  -641  -724  -812  -904  -873  -781  -694  -611  -534  -463  -398  -340  -288  -242  -203  -170  -143  -121  -104   -91   -81   -75   -71   -70   -70   -71   -74   -77   -80   -84   -89   -93   -97  -101  -104  -108  -111  -114  -117  -119  -121  -123  -125  -127  -128  -129  -130  -131  -132  -132  -132  -133  -133  -133  -133  -133  -133  -132  -132  -132  -131  -130  -129  -128  -127  -125  -123  -121  -119  -117  -114  -111  -108  -104  -101   -97   -93   -89   -84   -80   -77   -74   -71   -70   -70   -71   -75   -81   -91  -104  -121  -143  -170  -203  -242  -288  -340  -398  -463  -534  -611  -694  -781  -873  -845  -752  -665  -582  -505  -434  -370  -312  -261  -216  -178  -146  -119   -98   -82   -69   -61   -55   -52   -51   -52   -54   -57   -60   -64   -68   -73   -77   -81   -85   -89   -93   -96   -99  -102  -104  -107  -109  -110  -112  -113  -114  -115  -116  -117  -117  -118  -118  -118  -118  -118  -118  -118  -118  -117  -117  -116  -115  -114  -113  -112  -110  -109  -107  -104  -102   -99   -96   -93   -89   -85   -81   -77   -73   -68   -64   -60   -57   -54   -52   -51   -52   -55   -61   -69   -82   -98  -119  -146  -178  -216  -261  -312  -370  -434  -505  -582  -665  -752  -845  -817  -725  -637  -555  -478  -407  -343  -286  -235  -191  -154  -123   -97   -77   -61   -50   -42   -37   -34   -34   -35   -37   -41   -45   -49   -53   -58   -62   -67   -71   -75   -79   -82   -85   -88   -90   -93   -95   -96   -98   -99  -100  -101  -102  -103  -103  -104  -104  -104  -104  -104  -104  -104  -104  -103  -103  -102  -101  -100   -99   -98   -96   -95   -93   -90   -88   -85   -82   -79   -75   -71   -67   -62   -58   -53   -49   -45   -41   -37   -35   -34   -34   -37   -42   -50   -61   -77   -97  -123  -154  -191  -235  -286  -343  -407  -478  -555  -637  -725  -817  -792  -699  -611  -529  -452  -382  -318  -262  -212  -168  -132  -101   -76   -57   -42   -31   -24   -19   -18   -18   -19   -22   -26   -30   -34   -39   -44   -49   -53   -57   -61   -65   -69   -72   -75   -77   -80   -82   -83   -85   -86   -87   -88   -89   -90   -90   -91   -91   -91   -91   -91   -91   -91   -91   -90   -90   -89   -88   -87   -86   -85   -83   -82   -80   -77   -75   -72   -69   -65   -61   -57   -53   -49   -44   -39   -34   -30   -26   -22   -19   -18   -18   -19   -24   -31   -42   -57   -76  -101  -132  -168  -212  -262  -318  -382  -452  -529  -611  -699  -792  -767  -675  -587  -505  -428  -358  -295  -239  -189  -147  -111   -81   -57   -38   -24   -14    -7    -3    -2    -3    -5    -8   -12   -16   -21   -26   -31   -36   -41   -45   -49   -53   -56   -60   -62   -65   -67   -69   -71   -73   -74   -75   -76   -77   -78   -78   -79   -79   -79   -79   -79   -79   -79   -79   -78   -78   -77   -76   -75   -74   -73   -71   -69   -67   -65   -62   -60   -56   -53   -49   -45   -41   -36   -31   -26   -21   -16   -12    -8    -5    -3    -2    -3    -7   -14   -24   -38   -57   -81  -111  -147  -189  -239  -295  -358  -428  -505  -587  -675  -767  -745  -652  -564  -482  -406  -336  -273  -217  -169  -127   -91   -62   -39   -21    -7     2     8    12    12    11     9     5     1    -4    -9   -14   -19   -24   -29   -33   -37   -41   -45   -48   -51   -54   -56   -58   -60   -61   -63   -64   -65   -66   -66   -67   -67   -68   -68   -68   -68   -68   -68   -67   -67   -66   -66   -65   -64   -63   -61   -60   -58   -56   -54   -51   -48   -45   -41   -37   -33   -29   -24   -19   -14    -9    -4     1     5     9    11    12    12     8     2    -7   -21   -39   -62   -91  -127  -169  -217  -273  -336  -406  -482  -564  -652  -745  -724  -631  -543  -461  -385  -316  -253  -198  -149  -108   -73   -45   -22    -5     8    17    23    25    26    24    21    17    13     8     3    -3    -8   -13   -18   -23   -27   -31   -34   -38   -41   -43   -46   -48   -49   -51   -52   -53   -54   -55   -56   -56   -57   -57   -57   -57   -57   -57   -57   -57   -56   -56   -55   -54   -53   -52   -51   -49   -48   -46   -43   -41   -38   -34   -31   -27   -23   -18   -13    -8    -3     3     8    13    17    21    24    26    25    23    17     8    -5   -22   -45   -73  -108  -149  -198  -253  -316  -385  -461  -543  -631  -724  -705  -612  -524  -442  -366  -297  -235  -180  -132   -91   -57   -29    -7    10    22    31    36    38    38    36    33    28    24    18    13     7     2    -3    -8   -13   -17   -21   -25   -28   -31   -34   -36   -38   -40   -41   -43   -44   -45   -46   -46   -47   -47   -48   -48   -48   -48   -48   -48   -47   -47   -46   -46   -45   -44   -43   -41   -40   -38   -36   -34   -31   -28   -25   -21   -17   -13    -8    -3     2     7    13    18    24    28    33    36    38    38    36    31    22    10    -7   -29   -57   -91  -132  -180  -235  -297  -366  -442  -524  -612  -705  -687  -594  -506  -424  -349  -280  -218  -163  -116   -75   -42   -14     7    23    35    43    47    49    49    46    43    38    33    28    22    17    11     6     1    -4    -8   -12   -16   -19   -22   -25   -27   -29   -31   -33   -34   -35   -36   -37   -38   -38   -39   -39   -39   -39   -39   -39   -39   -39   -38   -38   -37   -36   -35   -34   -33   -31   -29   -27   -25   -22   -19   -16   -12    -8    -4     1     6    11    17    22    28    33    38    43    46    49    49    47    43    35    23     7   -14   -42   -75  -116  -163  -218  -280  -349  -424  -506  -594  -687  -671  -578  -490  -408  -333  -264  -203  -148  -101   -61   -28    -2    20    35    47    54    58    59    58    56    52    47    42    37    31    25    19    14     9     4     0    -4    -8   -11   -14   -17   -19   -22   -23   -25   -26   -27   -28   -29   -30   -30   -31   -31   -31   -31   -31   -31   -31   -31   -30   -30   -29   -28   -27   -26   -25   -23   -22   -19   -17   -14   -11    -8    -4     0     4     9    14    19    25    31    37    42    47    52    56    58    59    58    54    47    35    20    -2   -28   -61  -101  -148  -203  -264  -333  -408  -490  -578  -671  -657  -564  -476  -394  -319  -250  -189  -135   -89   -49   -16    10    31    46    57    64    67    68    67    64    60    55    50    44    38    33    27    21    16    11     7     3    -1    -4    -7   -10   -12   -15   -16   -18   -19   -20   -21   -22   -23   -23   -24   -24   -24   -24   -24   -24   -24   -24   -23   -23   -22   -21   -20   -19   -18   -16   -15   -12   -10    -7    -4    -1     3     7    11    16    21    27    33    38    44    50    55    60    64    67    68    67    64    57    46    31    10   -16   -49   -89  -135  -189  -250  -319  -394  -476  -564  -657  -645  -551  -464  -382  -307  -238  -177  -124   -77   -38    -6    20    40    55    66    72    76    76    75    72    68    62    57    51    45    39    33    28    22    18    13     9     5     2    -1    -4    -6    -8   -10   -12   -13   -14   -15   -16   -17   -17   -18   -18   -18   -18   -18   -18   -18   -18   -17   -17   -16   -15   -14   -13   -12   -10    -8    -6    -4    -1     2     5     9    13    18    22    28    33    39    45    51    57    62    68    72    75    76    76    72    66    55    40    20    -6   -38   -77  -124  -177  -238  -307  -382  -464  -551  -645  -634  -541  -453  -371  -296  -228  -167  -114   -68   -29     3    29    48    63    73    79    83    83    81    78    74    68    63    57    51    45    39    33    28    23    18    14    10     7     4     1    -1    -3    -5    -7    -8    -9   -10   -11   -12   -12   -13   -13   -13   -13   -13   -13   -13   -13   -12   -12   -11   -10    -9    -8    -7    -5    -3    -1     1     4     7    10    14    18    23    28    33    39    45    51    57    63    68    74    78    81    83    83    79    73    63    48    29     3   -29   -68  -114  -167  -228  -296  -371  -453  -541  -634  -625  -532  -444  -362  -287  -219  -159  -105   -60   -21    11    36    55    70    80    86    88    89    87    83    79    73    68    61    55    49    43    38    32    27    23    19    15    11     8     6     3     1    -1    -2    -4    -5    -6    -7    -7    -8    -8    -9    -9    -9    -9    -9    -9    -8    -8    -7    -7    -6    -5    -4    -2    -1     1     3     6     8    11    15    19    23    27    32    38    43    49    55    61    68    73    79    83    87    89    88    86    80    70    55    36    11   -21   -60  -105  -159  -219  -287  -362  -444  -532  -625  -618  -525  -437  -355  -280  -212  -152   -99   -53   -15    17    42    61    75    85    90    93    93    91    87    83    77    71    65    59    53    47    41    36    31    26    22    18    15    12     9     7     5     3     1     0    -1    -2    -3    -4    -4    -5    -5    -5    -5    -5    -5    -5    -5    -4    -4    -3    -2    -1     0     1     3     5     7     9    12    15    18    22    26    31    36    41    47    53    59    65    71    77    83    87    91    93    93    90    85    75    61    42    17   -15   -53   -99  -152  -212  -280  -355  -437  -525  -618  -613  -519  -431  -350  -275  -207  -147   -94   -48   -10    21    46    65    79    88    94    97    96    94    91    86    80    74    68    62    56    50    44    38    33    29    25    21    17    14    12     9     7     5     4     2     1     0    -1    -1    -2    -2    -2    -3    -3    -3    -3    -2    -2    -2    -1    -1     0     1     2     4     5     7     9    12    14    17    21    25    29    33    38    44    50    56    62    68    74    80    86    91    94    96    97    94    88    79    65    46    21   -10   -48   -94  -147  -207  -275  -350  -431  -519  -613  -609  -516  -428  -346  -271  -204  -143   -91   -45    -7    24    49    68    82    91    96    99    99    96    93    88    82    76    70    64    57    51    46    40    35    31    26    23    19    16    13    11     9     7     5     4     3     2     1     1     0     0    -1    -1    -1    -1    -1    -1     0     0     1     1     2     3     4     5     7     9    11    13    16    19    23    26    31    35    40    46    51    57    64    70    76    82    88    93    96    99    99    96    91    82    68    49    24    -7   -45   -91  -143  -204  -271  -346  -428  -516  -609  -607  -514  -426  -344  -270  -202  -142   -89   -44    -6    25    50    69    83    92    98   100   100    98    94    89    83    77    71    65    58    52    47    41    36    32    27    23    20    17    14    12    10     8     6     5     4     3     2     1     1     0     0     0     0     0     0     0     0     1     1     2     3     4     5     6     8    10    12    14    17    20    