# vtk DataFile Version 2.0
Volume example
ASCII
DATASET STRUCTURED_POINTS
DIMENSIONS 100 100 1
ASPECT_RATIO 1 1 1
ORIGIN 0 0 0
POINT_DATA 10000
SCALARS volume_scalars char 1
LOOKUP_TABLE default
-106 -105 -105 -104 -103 -103 -102 -101 -101 -100  -99  -99  -98  -98  -97  -97  -96  -96  -95  -95  -94  -94  -94  -93  -93  -93  -92  -92  -92  -91  -91  -91  -90  -90  -90  -78  -66  -56  -48  -43  -38  -36  -34  -33  -34  -35  -36  -37  -38  -39  -39  -38  -37  -36  -35  -34  -33  -34  -36  -38  -43  -48  -56  -66  -78  -90  -90  -90  -91  -91  -91  -92  -92  -92  -93  -93  -93  -94  -94  -94  -95  -95  -96  -96  -97  -97  -98  -98  -99  -99 -100 -101 -101 -102 -103 -103 -104 -105 -105 -106 -102 -102 -101 -100 -100  -99  -98  -98  -97  -96  -96  -95  -95  -94  -94  -93  -93  -92  -92  -91  -91  -91  -90  -90  -89  -89  -89  -88  -88  -88  -87  -87  -87  -87  -86  -75  -63  -53  -45  -40  -35  -33  -31  -31  -32  -33  -34  -35  -37  -37  -37  -37  -35  -34  -33  -32  -31  -31  -33  -35  -40  -45  -53  -63  -75  -86  -87  -87  -87  -87  -88  -88  -88  -89  -89  -89  -90  -90  -91  -91  -91  -92  -92  -93  -93  -94  -94  -95  -95  -96  -96  -97  -98  -98  -99 -100 -100 -101 -102 -102  -99  -98  -98  -97  -96  -95  -95  -94  -94  -93  -92  -92  -91  -91  -90  -90  -89  -89  -88  -88  -87  -87  -87  -86  -86  -86  -85  -85  -85  -84  -84  -84  -83  -83  -83  -71  -59  -50  -42  -36  -33  -30  -29  -29  -29  -31  -32  -34  -35  -36  -36  -35  -34  -32  -31  -29  -29  -29  -30  -33  -36  -42  -50  -59  -71  -83  -83  -83  -84  -84  -84  -85  -85  -85  -86  -86  -86  -87  -87  -87  -88  -88  -89  -89  -90  -90  -91  -91  -92  -92  -93  -94  -94  -95  -95  -96  -97  -98  -98  -99  -96  -95  -94  -93  -93  -92  -91  -91  -90  -90  -89  -88  -88  -87  -87  -86  -86  -85  -85  -85  -84  -84  -83  -83  -83  -82  -82  -81  -81  -81  -81  -80  -80  -80  -80  -68  -56  -46  -39  -33  -30  -27  -26  -26  -27  -28  -30  -32  -33  -34  -34  -33  -32  -30  -28  -27  -26  -26  -27  -30  -33  -39  -46  -56  -68  -80  -80  -80  -80  -81  -81  -81  -81  -82  -82  -83  -83  -83  -84  -84  -85  -85  -85  -86  -86  -87  -87  -88  -88  -89  -90  -90  -91  -91  -92  -93  -93  -94  -95  -96  -92  -91  -91  -90  -89  -89  -88  -87  -87  -86  -86  -85  -85  -84  -84  -83  -83  -82  -82  -81  -81  -80  -80  -80  -79  -79  -78  -78  -78  -78  -77  -77  -77  -77  -76  -64  -52  -43  -36  -30  -27  -25  -24  -24  -25  -26  -28  -30  -32  -33  -33  -32  -30  -28  -26  -25  -24  -24  -25  -27  -30  -36  -43  -52  -64  -76  -77  -77  -77  -77  -78  -78  -78  -78  -79  -79  -80  -80  -80  -81  -81  -82  -82  -83  -83  -84  -84  -85  -85  -86  -86  -87  -87  -88  -89  -89  -90  -91  -91  -92  -89  -88  -87  -87  -86  -85  -85  -84  -84  -83  -82  -82  -81  -81  -80  -80  -79  -79  -78  -78  -77  -77  -77  -76  -76  -76  -75  -75  -75  -74  -74  -74  -74  -73  -73  -61  -49  -40  -32  -27  -24  -22  -21  -21  -23  -24  -27  -29  -30  -31  -31  -30  -29  -27  -24  -23  -21  -21  -22  -24  -27  -32  -40  -49  -61  -73  -73  -74  -74  -74  -74  -75  -75  -75  -76  -76  -76  -77  -77  -77  -78  -78  -79  -79  -80  -80  -81  -81  -82  -82  -83  -84  -84  -85  -85  -86  -87  -87  -88  -89  -86  -85  -84  -84  -83  -82  -82  -81  -80  -80  -79  -79  -78  -78  -77  -77  -76  -76  -75  -75  -74  -74  -74  -73  -73  -72  -72  -72  -71  -71  -71  -71  -70  -70  -70  -57  -45  -36  -29  -24  -21  -19  -18  -19  -20  -22  -25  -27  -29  -30  -30  -29  -27  -25  -22  -20  -19  -18  -19  -21  -24  -29  -36  -45  -57  -70  -70  -70  -71  -71  -71  -71  -72  -72  -72  -73  -73  -74  -74  -74  -75  -75  -76  -76  -77  -77  -78  -78  -79  -79  -80  -80  -81  -82  -82  -83  -84  -84  -85  -86  -83  -82  -81  -80  -80  -79  -79  -78  -77  -77  -76  -76  -75  -74  -74  -73  -73  -73  -72  -72  -71  -71  -70  -70  -70  -69  -69  -69  -68  -68  -68  -67  -67  -67  -67  -53  -42  -33  -26  -21  -18  -16  -16  -17  -18  -20  -23  -25  -27  -29  -29  -27  -25  -23  -20  -18  -17  -16  -16  -18  -21  -26  -33  -42  -53  -67  -67  -67  -67  -68  -68  -68  -69  -69  -69  -70  -70  -70  -71  -71  -72  -72  -73  -73  -73  -74  -74  -75  -76  -76  -77  -77  -78  -79  -79  -80  -80  -81  -82  -83  -80  -79  -78  -77  -77  -76  -75  -75  -74  -74  -73  -73  -72  -71  -71  -70  -70  -69  -69  -69  -68  -68  -67  -67  -67  -66  -66  -66  -65  -65  -65  -64  -64  -64  -64  -50  -38  -29  -23  -18  -15  -13  -13  -14  -16  -18  -21  -24  -26  -27  -27  -26  -24  -21  -18  -16  -14  -13  -13  -15  -18  -23  -29  -38  -50  -64  -64  -64  -64  -65  -65  -65  -66  -66  -66  -67  -67  -67  -68  -68  -69  -69  -69  -70  -70  -71  -71  -72  -73  -73  -74  -74  -75  -75  -76  -77  -77  -78  -79  -80  -77  -76  -75  -74  -74  -73  -72  -72  -71  -71  -70  -70  -69  -68  -68  -67  -67  -67  -66  -66  -65  -65  -64  -64  -64  -63  -63  -63  -62  -62  -62  -61  -61  -61  -61  -46  -35  -26  -19  -14  -12  -10  -10  -12  -14  -16  -19  -22  -25  -26  -26  -25  -22  -19  -16  -14  -12  -10  -10  -12  -14  -19  -26  -35  -46  -61  -61  -61  -61  -62  -62  -62  -63  -63  -63  -64  -64  -64  -65  -65  -66  -66  -67  -67  -67  -68  -68  -69  -70  -70  -71  -71  -72  -72  -73  -74  -74  -75  -76  -77  -74  -73  -72  -72  -71  -70  -70  -69  -68  -68  -67  -67  -66  -66  -65  -65  -64  -64  -63  -63  -62  -62  -62  -61  -61  -60  -60  -60  -59  -59  -59  -59  -58  -58  -57  -42  -31  -22  -16  -11   -8   -7   -8   -9  -11  -14  -17  -21  -23  -25  -25  -23  -21  -17  -14  -11   -9   -8   -7   -8  -11  -16  -22  -31  -42  -57  -58  -58  -59  -59  -59  -59  -60  -60  -60  -61  -61  -62  -62  -62  -63  -63  -64  -64  -65  -65  -66  -66  -67  -67  -68  -68  -69  -70  -70  -71  -72  -72  -73  -74  -71  -70  -69  -69  -68  -67  -67  -66  -66  -65  -64  -64  -63  -63  -62  -62  -61  -61  -60  -60  -59  -59  -59  -58  -58  -58  -57  -57  -57  -56  -56  -56  -56  -55  -53  -39  -27  -19  -12   -8   -5   -4   -5   -6   -9  -12  -16  -19  -22  -23  -23  -22  -19  -16  -12   -9   -6   -5   -4   -5   -8  -12  -19  -27  -39  -53  -55  -56  -56  -56  -56  -57  -57  -57  -58  -58  -58  -59  -59  -59  -60  -60  -61  -61  -62  -62  -63  -63  -64  -64  -65  -66  -66  -67  -67  -68  -69  -69  -70  -71  -68  -67  -67  -66  -65  -65  -64  -63  -63  -62  -62  -61  -61  -60  -59  -59  -59  -58  -58  -57  -57  -56  -56  -56  -55  -55  -55  -54  -54  -54  -53  -53  -53  -53  -49  -35  -24  -15   -9   -5   -2   -1   -2   -4   -7  -10  -14  -17  -20  -22  -22  -20  -17  -14  -10   -7   -4   -2   -1   -2   -5   -9  -15  -24  -35  -49  -53  -53  -53  -53  -54  -54  -54  -55  -55  -55  -56  -56  -56  -57  -57  -58  -58  -59  -59  -59  -60  -61  -61  -62  -62  -63  -63  -64  -65  -65  -66  -67  -67  -68  -65  -65  -64  -63  -63  -62  -61  -61  -60  -59  -59  -58  -58  -57  -57  -56  -56  -55  -55  -54  -54  -54  -53  -53  -53  -52  -52  -52  -51  -51  -51  -50  -50  -50  -45  -31  -20  -12   -5   -1    1    2    1   -1   -4   -8  -12  -16  -19  -21  -21  -19  -16  -12   -8   -4   -1    1    2    1   -1   -5  -12  -20  -31  -45  -50  -50  -50  -51  -51  -51  -52  -52  -52  -53  -53  -53  -54  -54  -54  -55  -55  -56  -56  -57  -57  -58  -58  -59  -59  -60  -61  -61  -62  -63  -63  -64  -65  -65  -63  -62  -61  -61  -60  -59  -59  -58  -57  -57  -56  -56  -55  -55  -54  -54  -53  -53  -52  -52  -51  -51  -51  -50  -50  -50  -49  -49  -49  -48  -48  -48  -48  -47  -41  -27  -16   -8   -2    2    4    5    4    1   -2   -6  -10  -14  -18  -20  -20  -18  -14  -10   -6   -2    1    4    5    4    2   -2   -8  -16  -27  -41  -47  -48  -48  -48  -48  -49  -49  -49  -50  -50  -50  -51  -51  -51  -52  -52  -53  -53  -54  -54  -55  -55  -56  -56  -57  -57  -58  -59  -59  -60  -61  -61  -62  -63  -60  -59  -59  -58  -57  -57  -56  -56  -55  -54  -54  -53  -53  -52  -52  -51  -51  -50  -50  -49  -49  -49  -48  -48  -47  -47  -47  -46  -46  -46  -46  -45  -45  -45  -37  -24  -13   -4    2    6    8    8    7    4    1   -4   -8  -13  -16  -19  -19  -16  -13   -8   -4    1    4    7    8    8    6    2   -4  -13  -24  -37  -45  -45  -45  -46  -46  -46  -46  -47  -47  -47  -48  -48  -49  -49  -49  -50  -50  -51  -51  -52  -52  -53  -53  -54  -54  -55  -56  -56  -57  -57  -58  -59  -59  -60  -58  -57  -56  -56  -55  -54  -54  -53  -52  -52  -51  -51  -50  -50  -49  -49  -48  -48  -47  -47  -46  -46  -46  -45  -45  -45  -44  -44  -44  -43  -43  -43  -43  -42  -34  -20   -9   -1    5    9   11   11   10    7    3   -2   -7  -11  -15  -18  -18  -15  -11   -7   -2    3    7   10   11   11    9    5   -1   -9  -20  -34  -42  -43  -43  -43  -43  -44  -44  -44  -45  -45  -45  -46  -46  -46  -47  -47  -48  -48  -49  -49  -50  -50  -51  -51  -52  -52  -53  -54  -54  -55  -56  -56  -57  -58  -55  -55  -54  -53  -53  -52  -51  -51  -50  -49  -49  -48  -48  -47  -47  -46  -46  -45  -45  -45  -44  -44  -43  -43  -43  -42  -42  -42  -41  -41  -41  -40  -40  -40  -30  -16   -5    3    9   13   14   14   13   10    6    1   -5  -10  -14  -16  -16  -14  -10   -5    1    6   10   13   14   14   13    9    3   -5  -16  -30  -40  -40  -40  -41  -41  -41  -42  -42  -42  -43  -43  -43  -44  -44  -45  -45  -45  -46  -46  -47  -47  -48  -48  -49  -49  -50  -51  -51  -52  -53  -53  -54  -55  -55  -53  -52  -52  -51  -50  -50  -49  -48  -48  -47  -47  -46  -46  -45  -44  -44  -44  -43  -43  -42  -42  -41  -41  -41  -40  -40  -40  -39  -39  -39  -38  -38  -38  -38  -26  -12   -1    7   13   16   18   18   16   13    8    3   -3   -8  -13  -15  -15  -13   -8   -3    3    8   13   16   18   18   16   13    7   -1  -12  -26  -38  -38  -38  -38  -39  -39  -39  -40  -40  -40  -41  -41  -41  -42  -42  -43  -43  -44  -44  -44  -45  -46  -46  -47  -47  -48  -48  -49  -50  -50  -51  -52  -52  -53  -51  -50  -49  -49  -48  -47  -47  -46  -45  -45  -44  -44  -43  -43  -42  -42  -41  -41  -40  -40  -40  -39  -39  -38  -38  -38  -37  -37  -37  -36  -36  -36  -36  -35  -22   -8    3   11   16   20   21   21   19   15   11    5   -1   -7  -11  -14  -14  -11   -7   -1    5   11   15   19   21   21   20   16   11    3   -8  -22  -35  -36  -36  -36  -36  -37  -37  -37  -38  -38  -38  -39  -39  -40  -40  -40  -41  -41  -42  -42  -43  -43  -44  -44  -45  -45  -46  -47  -47  -48  -49  -49  -50  -51  -48  -48  -47  -46  -46  -45  -45  -44  -43  -43  -42  -42  -41  -41  -40  -40  -39  -39  -38  -38  -37  -37  -37  -36  -36  -35  -35  -35  -35  -34  -34  -34  -33  -33  -18   -4    6   14   20   23   25   24   22   18   13    7    1   -5  -10  -13  -13  -10   -5    1    7   13   18   22   24   25   23   20   14    6   -4  -18  -33  -33  -34  -34  -34  -35  -35  -35  -35  -36  -36  -37  -37  -37  -38  -38  -39  -39  -40  -40  -41  -41  -42  -42  -43  -43  -44  -45  -45  -46  -46  -47  -48  -48  -46  -46  -45  -44  -44  -43  -42  -42  -41  -41  -40  -40  -39  -38  -38  -37  -37  -37  -36  -36  -35  -35  -34  -34  -34  -33  -33  -33  -32  -32  -32  -32  -31  -31  -14    0   10   18   24   27   28   28   25   21   16   10    3   -3   -9  -12  -12   -9   -3    3   10   16   21   25   28   28   27   24   18   10    0  -14  -31  -31  -32  -32  -32  -32  -33  -33  -33  -34  -34  -34  -35  -35  -36  -36  -37  -37  -37  -38  -38  -39  -40  -40  -41  -41  -42  -42  -43  -44  -44  -45  -46  -46  -44  -44  -43  -42  -42  -41  -40  -40  -39  -39  -38  -37  -37  -36  -36  -35  -35  -35  -34  -34  -33  -33  -32  -32  -32  -31  -31  -31  -30  -30  -30  -30  -29  -27  -10    3   14   22   27   31   32   31   28   24   19   12    5   -2   -8  -12  -12   -8   -2    5   12   19   24   28   31   32   31   27   22   14    3  -10  -27  -29  -30  -30  -30  -30  -31  -31  -31  -32  -32  -32  -33  -33  -34  -34  -35  -35  -35  -36  -36  -37  -37  -38  -39  -39  -40  -40  -41  -42  -42  -43  -44  -44  -42  -42  -41  -40  -40  -39  -38  -38  -37  -37  -36  -36  -35  -34  -34  -34  -33  -33  -32  -32  -31  -31  -31  -30  -30  -29  -29  -29  -28  -28  -28  -28  -27  -23   -6    7   18   26   31   34   35   34   32   27   22   15    7    0   -7  -11  -11   -7    0    7   15   22   27   32   34   35   34   31   26   18    7   -6  -23  -27  -28  -28  -28  -28  -29  -29  -29  -30  -30  -31  -31  -31  -32  -32  -33  -33  -34  -34  -34  -35  -36  -36  -37  -37  -38  -38  -39  -40  -40  -41  -42  -42  -40  -40  -39  -38  -38  -37  -37  -36  -35  -35  -34  -34  -33  -33  -32  -32  -31  -31  -30  -30  -29  -29  -29  -28  -28  -28  -27  -27  -27  -26  -26  -26  -26  -20   -3   11   22   29   35   38   39   38   35   30   24   17    9    1   -5  -10  -10   -5    1    9   17   24   30   35   38   39   38   35   29   22   11   -3  -20  -26  -26  -26  -26  -27  -27  -27  -28  -28  -28  -29  -29  -29  -30  -30  -31  -31  -32  -32  -33  -33  -34  -34  -35  -35  -36  -37  -37  -38  -38  -39  -40  -40  -39  -38  -37  -37  -36  -35  -35  -34  -34  -33  -32  -32  -31  -31  -30  -30  -29  -29  -28  -28  -28  -27  -27  -26  -26  -26  -25  -25  -25  -25  -24  -24  -24  -16    1   15   25   33   38   41   42   41   38   34   27   20   12    3   -4   -9   -9   -4    3   12   20   27   34   38   41   42   41   38   33   25   15    1  -16  -24  -24  -24  -25  -25  -25  -25  -26  -26  -26  -27  -27  -28  -28  -28  -29  -29  -30  -30  -31  -31  -32  -32  -33  -34  -34  -35  -35  -36  -37  -37  -38  -39  -37  -36  -36  -35  -34  -34  -33  -32  -32  -31  -31  -30  -30  -29  -29  -28  -28  -27  -27  -26  -26  -25  -25  -25  -24  -24  -24  -23  -23  -23  -23  -22  -22  -12    5   19   29   37   42   45   46   45   42   37   30   22   14    5   -3   -8   -8   -3    5   14   22   30   37   42   45   46   45   42   37   29   19    5  -12  -22  -22  -23  -23  -23  -23  -24  -24  -24  -25  -25  -25  -26  -26  -27  -27  -28  -28  -29  -29  -30  -30  -31  -31  -32  -32  -33  -34  -34  -35  -36  -36  -37  -35  -35  -34  -33  -33  -32  -31  -31  -30  -30  -29  -28  -28  -27  -27  -26  -26  -25  -25  -25  -24  -24  -23  -23  -23  -22  -22  -22  -21  -21  -21  -21  -20   -8    9   22   33   40   46   49   49   48   45   40   33   25   16    7   -2   -7   -7   -2    7   16   25   33   40   45   48   49   49   46   40   33   22    9   -8  -20  -21  -21  -21  -21  -22  -22  -22  -23  -23  -23  -24  -24  -25  -25  -25  -26  -26  -27  -27  -28  -28  -29  -30  -30  -31  -31  -32  -33  -33  -34  -35  -35  -34  -33  -32  -32  -31  -30  -30  -29  -29  -28  -27  -27  -26  -26  -25  -25  -24  -24  -23  -23  -23  -22  -22  -21  -21  -21  -20  -20  -20  -20  -19  -19  -19   -5   12   26   36   44   49   52   53   52   48   43   36   28   18    9    0   -6   -6    0    9   18   28   36   43   48   52   53   52   49   44   36   26   12   -5  -19  -19  -19  -20  -20  -20  -20  -21  -21  -21  -22  -22  -23  -23  -23  -24  -24  -25  -25  -26  -26  -27  -27  -28  -29  -29  -30  -30  -31  -32  -32  -33  -34  -32  -31  -31  -30  -29  -29  -28  -28  -27  -26  -26  -25  -25  -24  -24  -23  -23  -22  -22  -22  -21  -21  -20  -20  -20  -19  -19  -19  -18  -18  -18  -17  -17   -1   16   29   40   48   53   56   57   55   52   46   39   31   21   10    1   -6   -6    1   10   21   31   39   46   52   55   57   56   53   48   40   29   16   -1  -17  -17  -18  -18  -18  -19  -19  -19  -20  -20  -20  -21  -21  -22  -22  -22  -23  -23  -24  -24  -25  -25  -26  -26  -27  -28  -28  -29  -29  -30  -31  -31  -32  -31  -30  -29  -29  -28  -27  -27  -26  -26  -25  -24  -24  -23  -23  -22  -22  -21  -21  -20  -20  -20  -19  -19  -19  -18  -18  -17  -17  -17  -17  -16  -16  -16    2   19   33   43   51   56   59   60   59   55   50   42   34   23   12    2   -5   -5    2   12   23   34   42   50   55   59   60   59   56   51   43   33   19    2  -16  -16  -16  -17  -17  -17  -17  -18  -18  -19  -19  -19  -20  -20  -20  -21  -21  -22  -22  -23  -23  -24  -24  -25  -26  -26  -27  -27  -28  -29  -29  -30  -31  -29  -29  -28  -27  -27  -26  -25  -25  -24  -24  -23  -22  -22  -21  -21  -20  -20  -20  -19  -19  -18  -18  -17  -17  -17  -16  -16  -16  -15  -15  -15  -15  -14    6   23   36   47   54   60   63   63   62   58   53   46   36   26   14    4   -4   -4    4   14   26   36   46   53   58   62   63   63   60   54   47   36   23    6  -14  -15  -15  -15  -15  -16  -16  -16  -17  -17  -17  -18  -18  -19  -19  -20  -20  -20  -21  -21  -22  -22  -23  -24  -24  -25  -25  -26  -27  -27  -28  -29  -29  -28  -27  -27  -26  -25  -25  -24  -23  -23  -22  -22  -21  -21  -20  -20  -19  -19  -18  -18  -17  -17  -17  -16  -16  -15  -15  -15  -14  -14  -14  -14  -13  -12    9   26   39   50   58   63   66   67   65   62   56   49   39   28   17    5   -4   -4    5   17   28   39   49   56   62   65   67   66   63   58   50   39   26    9  -12  -13  -14  -14  -14  -14  -15  -15  -15  -16  -16  -17  -17  -17  -18  -18  -19  -19  -20  -20  -21  -21  -22  -22  -23  -23  -24  -25  -25  -26  -27  -27  -28  -27  -26  -25  -25  -24  -23  -23  -22  -22  -21  -20  -20  -19  -19  -18  -18  -17  -17  -17  -16  -16  -15  -15  -15  -14  -14  -14  -13  -13  -13  -12  -12   -9   12   29   43   53   61   66   69   70   68   65   59   52   42   31   19    6   -3   -3    6   19   31   42   52   59   65   68   70   69   66   61   53   43   29   12   -9  -12  -12  -13  -13  -13  -14  -14  -14  -15  -15  -15  -16  -16  -17  -17  -17  -18  -18  -19  -19  -20  -20  -21  -22  -22  -23  -23  -24  -25  -25  -26  -27  -26  -25  -24  -24  -23  -22  -22  -21  -20  -20  -19  -19  -18  -18  -17  -17  -16  -16  -15  -15  -15  -14  -14  -13  -13  -13  -12  -12  -12  -12  -11  -11   -6   15   32   46   56   64   69   72   73   72   68   62   55   45   34   21    8   -2   -2    8   21   34   45   55   62   68   72   73   72   69   64   56   46   32   15   -6  -11  -11  -12  -12  -12  -12  -13  -13  -13  -14  -14  -15  -15  -15  -16  -16  -17  -17  -18  -18  -19  -19  -20  -20  -21  -22  -22  -23  -24  -24  -25  -26  -24  -24  -23  -22  -22  -21  -21  -20  -19  -19  -18  -18  -17  -17  -16  -16  -15  -15  -14  -14  -14  -13  -13  -12  -12  -12  -11  -11  -11  -10  -10  -10   -3   18   35   49   59   67   72   75   76   75   71   65   58   48   36   23   10   -1   -1   10   23   36   48   58   65   71   75   76   75   72   67   59   49   35   18   -3  -10  -10  -10  -11  -11  -11  -12  -12  -12  -13  -13  -14  -14  -14  -15  -15  -16  -16  -17  -17  -18  -18  -19  -19  -20  -21  -21  -22  -22  -23  -24  -24  -23  -23  -22  -21  -21  -20  -20  -19  -18  -18  -17  -17  -16  -16  -15  -15  -14  -14  -13  -13  -12  -12  -12  -11  -11  -11  -10  -10  -10   -9   -9   -9    0   21   38   51   62   70   75   78   79   78   74   68   61   51   39   25   11   -1   -1   11   25   39   51   61   68   74   78   79   78   75   70   62   51   38   21    0   -9   -9   -9  -10  -10  -10  -11  -11  -11  -12  -12  -12  -13  -13  -14  -14  -15  -15  -16  -16  -17  -17  -18  -18  -19  -20  -20  -21  -21  -22  -23  -23  -22  -22  -21  -20  -20  -19  -19  -18  -17  -17  -16  -16  -15  -15  -14  -14  -13  -13  -12  -12  -12  -11  -11  -10  -10  -10   -9   -9   -9   -8   -8   -8    2   23   40   54   65   72   78   81   82   80   77   71   63   54   42   28   13    0    0   13   28   42   54   63   71   77   80   82   81   78   72   65   54   40   23    2   -8   -8   -8   -9   -9   -9  -10  -10  -10  -11  -11  -12  -12  -12  -13  -13  -14  -14  -15  -15  -16  -16  -17  -17  -18  -19  -19  -20  -20  -21  -22  -22  -22  -21  -20  -20  -19  -18  -18  -17  -17  -16  -15  -15  -14  -14  -13  -13  -12  -12  -12  -11  -11  -10  -10  -10   -9   -9   -9   -8   -8   -8   -7   -7    5   26   43   56   67   75   80   84   84   83   80   74   66   56   44   30   15    1    1   15   30   44   56   66   74   80   83   84   84   80   75   67   56   43   26    5   -7   -7   -8   -8   -8   -9   -9   -9  -10  -10  -10  -11  -11  -12  -12  -12  -13  -13  -14  -14  -15  -15  -16  -17  -17  -18  -18  -19  -20  -20  -21  -22  -21  -20  -19  -19  -18  -18  -17  -16  -16  -15  -15  -14  -14  -13  -13  -12  -12  -11  -11  -10  -10   -9   -9   -9   -8   -8   -8   -7   -7   -7   -7   -6    7   28   45   59   69   77   83   86   87   86   82   77   69   59   47   32   17    2    2   17   32   47   59   69   77   82   86   87   86   83   77   69   59   45   28    7   -6   -7   -7   -7   -7   -8   -8   -8   -9   -9   -9  -10  -10  -11  -11  -12  -12  -13  -13  -14  -14  -15  -15  -16  -16  -17  -18  -18  -19  -19  -20  -21  -20  -19  -19  -18  -17  -17  -16  -16  -15  -14  -14  -13  -13  -12  -12  -11  -11  -10  -10  -10   -9   -9   -8   -8   -8   -7   -7   -7   -6   -6   -6   -6    9   30   47   61   71   79   85   88   89   88   84   79   71   61   49   35   18    2    2   18   35   49   61   71   79   84   88   89   88   85   79   71   61   47   30    9   -6   -6   -6   -6   -7   -7   -7   -8   -8   -8   -9   -9  -10  -10  -10  -11  -11  -12  -12  -13  -13  -14  -14  -15  -16  -16  -17  -17  -18  -19  -19  -20  -19  -19  -18  -17  -17  -16  -16  -15  -14  -14  -13  -13  -12  -12  -11  -11  -10  -10   -9   -9   -9   -8   -8   -7   -7   -7   -6   -6   -6   -5   -5   -5   11   32   49   63   73   81   87   90   91   90   87   81   73   63   51   37   20    3    3   20   37   51   63   73   81   87   90   91   90   87   81   73   63   49   32   11   -5   -5   -5   -6   -6   -6   -7   -7   -7   -8   -8   -9   -9   -9  -10  -10  -11  -11  -12  -12  -13  -13  -14  -14  -15  -16  -16  -17  -17  -18  -19  -19  -19  -18  -17  -17  -16  -16  -15  -14  -14  -13  -13  -12  -12  -11  -11  -10  -10   -9   -9   -8   -8   -8   -7   -7   -6   -6   -6   -5   -5   -5   -5   -4   13   34   51   64   75   83   89   92   93   92   89   83   75   66   53   39   22    4    4   22   39   53   66   75   83   89   92   93   92   89   83   75   64   51   34   13   -4   -5   -5   -5   -5   -6   -6   -6   -7   -7   -8   -8   -8   -9   -9  -10  -10  -11  -11  -12  -12  -13  -13  -14  -14  -15  -16  -16  -17  -17  -18  -19  -18  -18  -17  -16  -16  -15  -14  -14  -13  -13  -12  -12  -11  -11  -10  -10   -9   -9   -8   -8   -7   -7   -7   -6   -6   -6   -5   -5   -5   -4   -4   -4   14   35   52   66   77   85   90   94   95   94   90   85   77   67   55   41   24    5    5   24   41   55   67   77   85   90   94   95   94   90   85   77   66   52   35   14   -4   -4   -4   -5   -5   -5   -6   -6   -6   -7   -7   -7   -8   -8   -9   -9  -10  -10  -11  -11  -12  -12  -13  -13  -14  -14  -15  -16  -16  -17  -18  -18  -18  -17  -17  -16  -15  -15  -14  -13  -13  -12  -12  -11  -11  -10  -10   -9   -9   -8   -8   -7   -7   -7   -6   -6   -6   -5   -5   -5   -4   -4   -4   -3   16   36   54   67   78   86   92   95   96   95   92   87   79   69   57   42   25    6    6   25   42   57   69   79   87   92   95   96   95   92   86   78   67   54   36   16   -3   -4   -4   -4   -5   -5   -5   -6   -6   -6   -7   -7   -7   -8   -8   -9   -9  -10  -10  -11  -11  -12  -12  -13  -13  -14  -15  -15  -16  -17  -17  -18  -18  -17  -16  -16  -15  -14  -14  -13  -12  -12  -11  -11  -10  -10   -9   -9   -8   -8   -7   -7   -7   -6   -6   -5   -5   -5   -4   -4   -4   -4   -3   -3   17   38   55   68   79   87   93   96   98   96   93   88   80   70   58   44   27    7    7   27   44   58   70   80   88   93   96   98   96   93   87   79   68   55   38   17   -3   -3   -4   -4   -4   -4   -5   -5   -5   -6   -6   -7   -7   -7   -8   -8   -9   -9  -10  -10  -11  -11  -12  -12  -13  -14  -14  -15  -16  -16  -17  -18  -17  -17  -16  -15  -15  -14  -13  -13  -12  -12  -11  -11  -10  -10   -9   -9   -8   -8   -7   -7   -6   -6   -6   -5   -5   -5   -4   -4   -4   -3   -3   -3   17   38   55   69   80   88   94   97   99   97   94   89   81   72   60   45   28    8    8   28   45   60   72   81   89   94   97   99   97   94   88   80   69   55   38   17   -3   -3   -3   -4   -4   -4   -5   -5   -5   -6   -6   -6   -7   -7   -8   -8   -9   -9  -10  -10  -11  -11  -12  -12  -13  -13  -14  -15  -15  -16  -17  -17  -17  -16  -16  -15  -14  -14  -13  -13  -12  -11  -11  -10  -10   -9   -9   -8   -8   -7   -7   -7   -6   -6   -5   -5   -5   -4   -4   -4   -3   -3   -3   -3   18   39   56   70   81   89   95   98   99   98   95   90   82   72   60   46   29    9    9   29   46   60   72   82   90   95   98   99   98   95   89   81   70   56   39   18   -3   -3   -3   -3   -4   -4   -4   -5   -5   -5   -6   -6   -7   -7   -7   -8   -8   -9   -9  -10  -10  -11  -11  -12  -13  -13  -14  -14  -15  -16  -16  -17  -17  -16  -16  -15  -14  -14  -13  -12  -12  -11  -11  -10  -10   -9   -9   -8   -8   -7   -7   -6   -6   -6   -5   -5   -4   -4   -4   -4   -3   -3   -3   -2   19   40   57   70   81   89   95   99  100   99   96   90   83   73   61   47   29    9    9   29   47   61   73   83   90   96   99  100   99   95   89   81   70   57   40   19   -2   -3   -3   -3   -4   -4   -4   -4   -5   -5   -6   -6   -6   -7   -7   -8   -8   -9   -9  -10  -10  -11  -11  -12  -12  -13  -14  -14  -15  -16  -16  -17  -17  -16  -15  -15  -14  -14  -13  -12  -12  -11  -11  -10  -10   -9   -9   -8   -8   -7   -7   -6   -6   -6   -5   -5   -4   -4   -4   -3   -3   -3   -3   -2   19   40   57   71   81   90   95   99  100   99   96   91   83   73   61   47   30    9    9   30   47   61   73   83   91   96   99  100   99   95   90   81   71   57   40   19   -2   -3   -3   -3   -3   -4   -4   -4   -5   -5   -6   -6   -6   -7   -7   -8   -8   -9   -9  -10  -10  -11  -11  -12  -12  -13  -14  -14  -15  -15  -16  -17  -17  -16  -15  -15  -14  -14  -13  -12  -12  -11  -11  -10  -10   -9   -9   -8   -8   -7   -7   -6   -6   -6   -5   -5   -4   -4   -4   -3   -3   -3   -3   -2   19   40   57   71   81   90   95   99  100   99   96   91   83   73   61   47   30    9    9   30   47   61   73   83   91   96   99  100   99   95   90   81   71   57   40   19   -2   -3   -3   -3   -3   -4   -4   -4   -5   -5   -6   -6   -6   -7   -7   -8   -8   -9   -9  -10  -10  -11  -11  -12  -12  -13  -14  -14  -15  -15  -16  -17  -17  -16  -16  -15  -14  -14  -13  -12  -12  -11  -11  -10  -10   -9   -9   -8   -8   -7   -7   -6   -6   -6   -5   -5   -4   -4   -4   -4   -3   -3   -3   -2   19   40   57   70   81   89   95   99  100   99   96   90   83   73   61   47   29    9    9   29   47   61   73   83   90   96   99  100   99   95   89   81   70   57   40   19   -2   -3   -3   -3   -4   -4   -4   -4   -5   -5   -6   -6   -6   -7   -7   -8   -8   -9   -9  -10  -10  -11  -11  -12  -12  -13  -14  -14  -15  -16  -16  -17  -17  -16  -16  -15  -14  -14  -13  -13  -12  -11  -11  -10  -10   -9   -9   -8   -8   -7   -7   -7   -6   -6   -5   -5   -5   -4   -4   -4   -3   -3   -3   -3   18   39   56   70   81   89   95   98   99   98   95   90   82   72   60   46   29    9    9   29   46   60   72   82   90   95   98   99   98   95   89   81   70   56   39   18   -3   -3   -3   -3   -4   -4   -4   -5   -5   -5   -6   -6   -7   -7   -7   -8   -8   -9   -9  -10  -10  -11  -11  -12  -13  -13  -14  -14  -15  -16  -16  -17  -17  -17  -16  -15  -15  -14  -13  -13  -12  -12  -11  -11  -10  -10   -9   -9   -8   -8   -7   -7   -6   -6   -6   -5   -5   -5   -4   -4   -4   -3   -3   -3   17   38   55   69   80   88   94   97   99   97   94   89   81   72   60   45   28    8    8   28   45   60   72   81   89   94   97   99   97   94   88   80   69   55   38   17   -3   -3   -3   -4   -4   -4   -5   -5   -5   -6   -6   -6   -7   -7   -8   -8   -9   -9  -10  -10  -11  -11  -12  -12  -13  -13  -14  -15  -15  -16  -17  -17  -18  -17  -16  -16  -15  -14  -14  -13  -12  -12  -11  -11  -10  -10   -9   -9   -8   -8   -7   -7   -7   -6   -6   -5   -5   -5   -4   -4   -4   -4   -3   -3   17   38   55   68   79   87   93   96   98   96   93   88   80   70   58   44   27    7    7   27   44   58   70   80   88   93   96   98   96   93   87   79   68   55   38   17   -3   -3   -4   -4   -4   -4   -5   -5   -5   -6   -6   -7   -7   -7   -8   -8   -9   -9  -10  -10  -11  -11  -12  -12  -13  -14  -14  -15  -16  -16  -17  -18  -18  -17  -17  -16  -15  -15  -14  -13  -13  -12  -12  -11  -11  -10  -10   -9   -9   -8   -8   -7   -7   -7   -6   -6   -6   -5   -5   -5   -4   -4   -4   -3   16   36   54   67   78   86   92   95   96   95   92   87   79   69   57   42   25    6    6   25   42   57   69   79   87   92   95   96   95   92   86   78   67   54   36   16   -3   -4   -4   -4   -5   -5   -5   -6   -6   -6   -7   -7   -7   -8   -8   -9   -9  -10  -10  -11  -11  -12  -12  -13  -13  -14  -15  -15  -16  -17  -17  -18  -18  -18  -17  -16  -16  -15  -14  -14  -13  -13  -12  -12  -11  -11  -10  -10   -9   -9   -8   -8   -7   -7   -7   -6   -6   -6   -5   -5   -5   -4   -4   -4   14   35   52   66   77   85   90   94   95   94   90   85   77   67   55   41   24    5    5   24   41   55   67   77   85   90   94   95   94   90   85   77   66   52   35   14   -4   -4   -4   -5   -5   -5   -6   -6   -6   -7   -7   -7   -8   -8   -9   -9  -10  -10  -11  -11  -12  -12  -13  -13  -14  -14  -15  -16  -16  -17  -18  -18  -19  -18  -17  -17  -16  -16  -15  -14  -14  -13  -13  -12  -12  -11  -11  -10  -10   -9   -9   -8   -8   -8   -7   -7   -6   -6   -6   -5   -5   -5   -5   -4   13   34   51   64   75   83   89   92   93   92   89   83   75   66   53   39   22    4    4   22   39   53   66   75   83   89   92   93   92   89   83   75   64   51   34   13   -4   -5   -5   -5   -5   -6   -6   -6   -7   -7   -8   -8   -8   -9   -9  -10  -10  -11  -11  -12  -12  -13  -13  -14  -14  -15  -16  -16  -17  -17  -18  -19  -19  -19  -18  -17  -17  -16  -16  -15  -14  -14  -13  -13  -12  -12  -11  -11  -10  -10   -9   -9   -9   -8   -8   -7   -7   -7   -6   -6   -6   -5   -5   -5   11   32   49   63   73   81   87   90   91   90   87   81   73   63   51   37   20    3    3   20   37   51   63   73   81   87   90   91   90   87   81   73   63   49   32   11   -5   -5   -5   -6   -6   -6   -7   -7   -7   -8   -8   -9   -9   -9  -10  -10  -11  -11  -12  -12  -13  -13  -14  -14  -15  -16  -16  -17  -17  -18  -19  -19  -20  -19  -19  -18  -17  -17  -16  -16  -15  -14  -14  -13  -13  -12  -12  -11  -11  -10  -10  -10   -9   -9   -8   -8   -8   -7   -7   -7   -6   -6   -6   -6    9   30   47   61   71   79   85   88   89   88   84   79   71   61   49   35   18    2    2   18   35   49   61   71   79   84   88   89   88 