# vtk DataFile Version 2.0
Volume example
ASCII
DATASET STRUCTURED_POINTS
DIMENSIONS 100 100 1
ASPECT_RATIO 1 1 1
ORIGIN 0 0 0
POINT_DATA 10000
SCALARS volume_scalars char 1
LOOKUP_TABLE default
-76  -75  -73  -72  -70  -69  -68  -67  -65  -64  -63  -62  -61  -60  -59  -58  -57  -56  -55  -54  -53  -52  -51  -50  -50  -49  -48  -48  -47  -46  -46  -45  -45  -44  -44  -43  -41  -37  -33  -30  -28  -26  -24  -22  -21  -20  -19  -18  -18  -18  -18  -18  -18  -19  -20  -21  -22  -24  -26  -28  -30  -33  -37  -41  -43  -44  -44  -45  -45  -46  -46  -47  -48  -48  -49  -50  -50  -51  -52  -53  -54  -55  -56  -57  -58  -59  -60  -61  -62  -63  -64  -65  -67  -68  -69  -70  -72  -73  -75  -76  -74  -73  -72  -70  -69  -68  -66  -65  -64  -63  -61  -60  -59  -58  -57  -56  -55  -54  -53  -52  -51  -50  -50  -49  -48  -47  -47  -46  -45  -45  -44  -44  -43  -43  -42  -42  -39  -35  -32  -29  -27  -25  -23  -21  -20  -19  -18  -18  -17  -17  -17  -17  -18  -18  -19  -20  -21  -23  -25  -27  -29  -32  -35  -39  -42  -42  -43  -43  -44  -44  -45  -45  -46  -47  -47  -48  -49  -50  -50  -51  -52  -53  -54  -55  -56  -57  -58  -59  -60  -61  -63  -64  -65  -66  -68  -69  -70  -72  -73  -74  -73  -71  -70  -69  -67  -66  -65  -63  -62  -61  -60  -59  -58  -57  -55  -54  -53  -52  -52  -51  -50  -49  -48  -47  -47  -46  -45  -44  -44  -43  -43  -42  -41  -41  -41  -40  -38  -34  -31  -28  -26  -23  -22  -20  -19  -18  -17  -17  -17  -16  -16  -17  -17  -17  -18  -19  -20  -22  -23  -26  -28  -31  -34  -38  -40  -41  -41  -41  -42  -43  -43  -44  -44  -45  -46  -47  -47  -48  -49  -50  -51  -52  -52  -53  -54  -55  -57  -58  -59  -60  -61  -62  -63  -65  -66  -67  -69  -70  -71  -73  -71  -70  -68  -67  -66  -64  -63  -62  -61  -59  -58  -57  -56  -55  -54  -53  -52  -51  -50  -49  -48  -47  -47  -46  -45  -44  -44  -43  -42  -42  -41  -40  -40  -39  -39  -39  -36  -33  -30  -27  -24  -22  -21  -19  -18  -17  -17  -16  -16  -16  -16  -16  -16  -17  -17  -18  -19  -21  -22  -24  -27  -30  -33  -36  -39  -39  -39  -40  -40  -41  -42  -42  -43  -44  -44  -45  -46  -47  -47  -48  -49  -50  -51  -52  -53  -54  -55  -56  -57  -58  -59  -61  -62  -63  -64  -66  -67  -68  -70  -71  -70  -68  -67  -66  -64  -63  -62  -60  -59  -58  -57  -56  -55  -53  -52  -51  -50  -49  -48  -48  -47  -46  -45  -44  -43  -43  -42  -41  -41  -40  -40  -39  -38  -38  -37  -37  -35  -31  -28  -25  -23  -21  -20  -18  -17  -16  -16  -15  -15  -15  -15  -15  -15  -16  -16  -17  -18  -20  -21  -23  -25  -28  -31  -35  -37  -37  -38  -38  -39  -40  -40  -41  -41  -42  -43  -43  -44  -45  -46  -47  -48  -48  -49  -50  -51  -52  -53  -55  -56  -57  -58  -59  -60  -62  -63  -64  -66  -67  -68  -70  -68  -67  -66  -64  -63  -61  -60  -59  -58  -56  -55  -54  -53  -52  -51  -50  -49  -48  -47  -46  -45  -44  -44  -43  -42  -41  -41  -40  -39  -39  -38  -37  -37  -36  -36  -36  -33  -30  -27  -24  -22  -20  -19  -17  -16  -16  -15  -15  -14  -14  -14  -14  -15  -15  -16  -16  -17  -19  -20  -22  -24  -27  -30  -33  -36  -36  -36  -37  -37  -38  -39  -39  -40  -41  -41  -42  -43  -44  -44  -45  -46  -47  -48  -49  -50  -51  -52  -53  -54  -55  -56  -58  -59  -60  -61  -63  -64  -66  -67  -68  -67  -65  -64  -63  -61  -60  -59  -57  -56  -55  -54  -53  -52  -51  -49  -48  -47  -46  -46  -45  -44  -43  -42  -41  -41  -40  -39  -38  -38  -37  -37  -36  -36  -35  -35  -34  -32  -28  -25  -23  -21  -19  -18  -16  -16  -15  -14  -14  -14  -14  -14  -14  -14  -14  -15  -16  -16  -18  -19  -21  -23  -25  -28  -32  -34  -35  -35  -36  -36  -37  -37  -38  -38  -39  -40  -41  -41  -42  -43  -44  -45  -46  -46  -47  -48  -49  -51  -52  -53  -54  -55  -56  -57  -59  -60  -61  -63  -64  -65  -67  -65  -64  -63  -61  -60  -59  -57  -56  -55  -54  -52  -51  -50  -49  -48  -47  -46  -45  -44  -43  -42  -42  -41  -40  -39  -38  -38  -37  -36  -36  -35  -35  -34  -34  -33  -33  -30  -27  -24  -22  -20  -18  -17  -16  -15  -14  -14  -13  -13  -13  -13  -13  -13  -14  -14  -15  -16  -17  -18  -20  -22  -24  -27  -30  -33  -33  -34  -34  -35  -35  -36  -36  -37  -38  -38  -39  -40  -41  -42  -42  -43  -44  -45  -46  -47  -48  -49  -50  -51  -52  -54  -55  -56  -57  -59  -60  -61  -63  -64  -65  -64  -63  -61  -60  -59  -57  -56  -55  -53  -52  -51  -50  -49  -48  -47  -46  -45  -44  -43  -42  -41  -40  -39  -39  -38  -37  -36  -36  -35  -34  -34  -33  -33  -32  -32  -31  -28  -25  -23  -20  -18  -17  -16  -15  -14  -13  -13  -13  -13  -12  -12  -13  -13  -13  -13  -14  -15  -16  -17  -18  -20  -23  -25  -28  -31  -32  -32  -33  -33  -34  -34  -35  -36  -36  -37  -38  -39  -39  -40  -41  -42  -43  -44  -45  -46  -47  -48  -49  -50  -51  -52  -53  -55  -56  -57  -59  -60  -61  -63  -64  -63  -61  -60  -59  -57  -56  -55  -53  -52  -51  -50  -49  -47  -46  -45  -44  -43  -42  -41  -41  -40  -39  -38  -37  -36  -36  -35  -34  -34  -33  -32  -32  -31  -31  -30  -30  -27  -24  -21  -19  -17  -16  -14  -14  -13  -13  -12  -12  -12  -12  -12  -12  -12  -12  -13  -13  -14  -14  -16  -17  -19  -21  -24  -27  -30  -30  -31  -31  -32  -32  -33  -34  -34  -35  -36  -36  -37  -38  -39  -40  -41  -41  -42  -43  -44  -45  -46  -47  -49  -50  -51  -52  -53  -55  -56  -57  -59  -60  -61  -63  -61  -60  -59  -57  -56  -55  -53  -52  -51  -50  -48  -47  -46  -45  -44  -43  -42  -41  -40  -39  -38  -37  -37  -36  -35  -34  -34  -33  -32  -32  -31  -31  -30  -30  -29  -28  -25  -22  -19  -17  -16  -14  -13  -13  -12  -12  -12  -11  -11  -11  -11  -11  -11  -12  -12  -12  -13  -13  -14  -16  -17  -19  -22  -25  -28  -29  -30  -30  -31  -31  -32  -32  -33  -34  -34  -35  -36  -37  -37  -38  -39  -40  -41  -42  -43  -44  -45  -46  -47  -48  -50  -51  -52  -53  -55  -56  -57  -59  -60  -61  -60  -59  -57  -56  -55  -53  -52  -51  -50  -48  -47  -46  -45  -44  -43  -42  -41  -40  -39  -38  -37  -36  -35  -35  -34  -33  -32  -32  -31  -30  -30  -29  -29  -28  -28  -26  -23  -20  -18  -16  -14  -13  -12  -12  -11  -11  -11  -11  -11  -11  -11  -11  -11  -11  -11  -11  -12  -12  -13  -14  -16  -18  -20  -23  -26  -28  -28  -29  -29  -30  -30  -31  -32  -32  -33  -34  -35  -35  -36  -37  -38  -39  -40  -41  -42  -43  -44  -45  -46  -47  -48  -50  -51  -52  -53  -55  -56  -57  -59  -60  -59  -57  -56  -55  -53  -52  -51  -50  -48  -47  -46  -45  -44  -43  -42  -40  -39  -39  -38  -37  -36  -35  -34  -33  -33  -32  -31  -30  -30  -29  -29  -28  -28  -27  -27  -24  -21  -19  -16  -14  -13  -12  -11  -11  -10  -10  -10  -10  -10  -10  -10  -10  -10  -10  -10  -10  -11  -11  -12  -13  -14  -16  -19  -21  -24  -27  -27  -28  -28  -29  -29  -30  -30  -31  -32  -33  -33  -34  -35  -36  -37  -38  -39  -39  -40  -42  -43  -44  -45  -46  -47  -48  -50  -51  -52  -53  -55  -56  -57  -59  -58  -56  -55  -54  -52  -51  -50  -48  -47  -46  -45  -44  -42  -41  -40  -39  -38  -37  -36  -35  -35  -34  -33  -32  -31  -31  -30  -29  -29  -28  -27  -27  -26  -26  -25  -22  -19  -17  -15  -13  -12  -11  -10  -10   -9   -9   -9  -10  -10  -10  -10  -10  -10   -9   -9   -9  -10  -10  -11  -12  -13  -15  -17  -19  -22  -25  -26  -26  -27  -27  -28  -29  -29  -30  -31  -31  -32  -33  -34  -35  -35  -36  -37  -38  -39  -40  -41  -42  -44  -45  -46  -47  -48  -50  -51  -52  -54  -55  -56  -58  -57  -55  -54  -52  -51  -50  -48  -47  -46  -45  -44  -42  -41  -40  -39  -38  -37  -36  -35  -34  -33  -33  -32  -31  -30  -29  -29  -28  -27  -27  -26  -26  -25  -25  -24  -20  -17  -15  -13  -11  -10   -9   -9   -9   -9   -9   -9   -9   -9   -9   -9   -9   -9   -9   -9   -9   -9   -9   -9  -10  -11  -13  -15  -17  -20  -24  -25  -25  -26  -26  -27  -27  -28  -29  -29  -30  -31  -32  -33  -33  -34  -35  -36  -37  -38  -39  -40  -41  -42  -44  -45  -46  -47  -48  -50  -51  -52  -54  -55  -57  -55  -54  -53  -51  -50  -49  -47  -46  -45  -44  -42  -41  -40  -39  -38  -37  -36  -35  -34  -33  -32  -31  -31  -30  -29  -28  -28  -27  -26  -26  -25  -25  -24  -24  -22  -18  -15  -13  -11  -10   -9   -8   -8   -8   -8   -8   -8   -8   -8   -9   -9   -8   -8   -8   -8   -8   -8   -8   -8   -9  -10  -11  -13  -15  -18  -22  -24  -24  -25  -25  -26  -26  -27  -28  -28  -29  -30  -31  -31  -32  -33  -34  -35  -36  -37  -38  -39  -40  -41  -42  -44  -45  -46  -47  -49  -50  -51  -53  -54  -55  -54  -53  -51  -50  -49  -47  -46  -45  -44  -42  -41  -40  -39  -38  -37  -36  -35  -34  -33  -32  -31  -30  -29  -29  -28  -27  -26  -26  -25  -25  -24  -23  -23  -22  -19  -16  -13  -11   -9   -8   -7   -7   -6   -6   -7   -7   -7   -8   -8   -8   -8   -8   -8   -7   -7   -7   -6   -6   -7   -7   -8   -9  -11  -13  -16  -19  -22  -23  -23  -24  -25  -25  -26  -26  -27  -28  -29  -29  -30  -31  -32  -33  -34  -35  -36  -37  -38  -39  -40  -41  -42  -44  -45  -46  -47  -49  -50  -51  -53  -54  -53  -52  -50  -49  -48  -46  -45  -44  -43  -41  -40  -39  -38  -37  -36  -35  -34  -33  -32  -31  -30  -29  -28  -28  -27  -26  -25  -25  -24  -23  -23  -22  -22  -21  -17  -13  -11   -9   -7   -6   -5   -5   -5   -5   -6   -6   -7   -7   -7   -8   -8   -7   -7   -7   -6   -6   -5   -5   -5   -5   -6   -7   -9  -11  -13  -17  -21  -22  -22  -23  -23  -24  -25  -25  -26  -27  -28  -28  -29  -30  -31  -32  -33  -34  -35  -36  -37  -38  -39  -40  -41  -43  -44  -45  -46  -48  -49  -50  -52  -53  -52  -51  -49  -48  -47  -45  -44  -43  -41  -40  -39  -38  -37  -36  -35  -34  -33  -32  -31  -30  -29  -28  -27  -27  -26  -25  -24  -24  -23  -22  -22  -21  -21  -18  -14  -11   -8   -7   -5   -4   -4   -4   -4   -4   -5   -5   -6   -7   -7   -7   -7   -7   -7   -6   -5   -5   -4   -4   -4   -4   -4   -5   -7   -8  -11  -14  -18  -21  -21  -22  -22  -23  -24  -24  -25  -26  -27  -27  -28  -29  -30  -31  -32  -33  -34  -35  -36  -37  -38  -39  -40  -41  -43  -44  -45  -47  -48  -49  -51  -52  -51  -50  -48  -47  -46  -44  -43  -42  -40  -39  -38  -37  -36  -35  -34  -33  -32  -31  -30  -29  -28  -27  -26  -26  -25  -24  -23  -23  -22  -21  -21  -20  -20  -15  -11   -8   -6   -4   -3   -2   -2   -2   -2   -3   -4   -4   -5   -6   -6   -7   -7   -6   -6   -5   -4   -4   -3   -2   -2   -2   -2   -3   -4   -6   -8  -11  -15  -20  -20  -21  -21  -22  -23  -23  -24  -25  -26  -26  -27  -28  -29  -30  -31  -32  -33  -34  -35  -36  -37  -38  -39  -40  -42  -43  -44  -46  -47  -48  -50  -51  -50  -49  -47  -46  -45  -43  -42  -41  -39  -38  -37  -36  -35  -34  -33  -32  -31  -30  -29  -28  -27  -26  -25  -25  -24  -23  -22  -22  -21  -20  -20  -19  -17  -12   -9   -6   -4   -2   -1    0    0    0   -1   -2   -3   -4   -5   -5   -6   -6   -6   -6   -5   -5   -4   -3   -2   -1    0    0    0   -1   -2   -4   -6   -9  -12  -17  -19  -20  -20  -21  -22  -22  -23  -24  -25  -25  -26  -27  -28  -29  -30  -31  -32  -33  -34  -35  -36  -37  -38  -39  -41  -42  -43  -45  -46  -47  -49  -50  -49  -48  -46  -45  -44  -42  -41  -40  -39  -37  -36  -35  -34  -33  -32  -31  -30  -29  -28  -27  -26  -25  -24  -24  -23  -22  -21  -21  -20  -19  -19  -18  -14   -9   -6   -3   -1    1    2    2    2    1    1    0   -2   -3   -4   -5   -5   -6   -6   -5   -5   -4   -3   -2    0    1    1    2    2    2    1   -1   -3   -6   -9  -14  -18  -19  -19  -20  -21  -21  -22  -23  -24  -24  -25  -26  -27  -28  -29  -30  -31  -32  -33  -34  -35  -36  -37  -39  -40  -41  -42  -44  -45  -46  -48  -49  -48  -47  -45  -44  -43  -41  -40  -39  -38  -36  -35  -34  -33  -32  -31  -30  -29  -28  -27  -26  -25  -24  -23  -23  -22  -21  -20  -20  -19  -19  -18  -15  -10   -6   -3    0    2    3    4    4    4    3    2    1    0   -2   -3   -4   -5   -5   -5   -5   -4   -3   -2    0    1    2    3    4    4    4    3    2    0   -3   -6  -10  -15  -18  -19  -19  -20  -20  -21  -22  -23  -23  -24  -25  -26  -27  -28  -29  -30  -31  -32  -33  -34  -35  -36  -38  -39  -40  -41  -43  -44  -45  -47  -48  -47  -46  -45  -43  -42  -41  -39  -38  -37  -36  -34  -33  -32  -31  -30  -29  -28  -27  -26  -25  -24  -23  -23  -22  -21  -20  -20  -19  -18  -18  -17  -12   -7   -3    0    3    5    6    7    7    6    5    4    2    1   -1   -2   -4   -5   -5   -5   -5   -4   -2   -1    1    2    4    5    6    7    7    6    5    3    0   -3   -7  -12  -17  -18  -18  -19  -20  -20  -21  -22  -23  -23  -24  -25  -26  -27  -28  -29  -30  -31  -32  -33  -34  -36  -37  -38  -39  -41  -42  -43  -45  -46  -47  -47  -45  -44  -42  -41  -40  -38  -37  -36  -35  -34  -32  -31  -30  -29  -28  -27  -26  -25  -24  -23  -23  -22  -21  -20  -19  -19  -18  -17  -17  -14   -9   -4    0    4    6    8    9    9    9    8    7    6    4    2    0   -1   -3   -4   -5   -5   -4   -3   -1    0    2    4    6    7    8    9    9    9    8    6    4    0   -4   -9  -14  -17  -17  -18  -19  -19  -20  -21  -22  -23  -23  -24  -25  -26  -27  -28  -29  -30  -31  -32  -34  -35  -36  -37  -38  -40  -41  -42  -44  -45  -47  -46  -44  -43  -42  -40  -39  -38  -36  -35  -34  -33  -32  -30  -29  -28  -27  -26  -25  -24  -23  -23  -22  -21  -20  -19  -19  -18  -17  -17  -16  -11   -5    0    4    7    9   11   12   12   12   11    9    8    6    3    1   -1   -2   -4   -4   -4   -4   -2   -1    1    3    6    8    9   11   12   12   12   11    9    7    4    0   -5  -11  -16  -17  -17  -18  -19  -19  -20  -21  -22  -23  -23  -24  -25  -26  -27  -28  -29  -30  -32  -33  -34  -35  -36  -38  -39  -40  -42  -43  -44  -46  -45  -43  -42  -41  -39  -38  -37  -36  -34  -33  -32  -31  -30  -29  -28  -26  -25  -25  -24  -23  -22  -21  -20  -19  -19  -18  -17  -16  -16  -14   -7   -1    3    7   11   13   14   15   15   15   13   12   10    7    5    2    0   -2   -3   -4   -4   -3   -2    0    2    5    7   10   12   13   15   15   15   14   13   11    7    3   -1   -7  -14  -16  -16  -17  -18  -19  -19  -20  -21  -22  -23  -24  -25  -25  -26  -28  -29  -30  -31  -32  -33  -34  -36  -37  -38  -39  -41  -42  -43  -45  -44  -43  -41  -40  -39  -37  -36  -35  -34  -32  -31  -30  -29  -28  -27  -26  -25  -24  -23  -22  -21  -20  -19  -19  -18  -17  -16  -16  -15  -10   -3    2    7   11   14   16   18   18   18   17   16   14   12    9    6    4    1   -1   -3   -4   -4   -3   -1    1    4    6    9   12   14   16   17   18   18   18   16   14   11    7    2   -3  -10  -15  -16  -16  -17  -18  -19  -19  -20  -21  -22  -23  -24  -25  -26  -27  -28  -29  -30  -31  -32  -34  -35  -36  -37  -39  -40  -41  -43  -44  -43  -42  -41  -39  -38  -37  -35  -34  -33  -32  -30  -29  -28  -27  -26  -25  -24  -23  -22  -21  -20  -19  -19  -18  -17  -16  -16  -15  -14   -6    0    6   11   15   18   20   21   22   22   21   19   17   14   11    8    5    2    0   -2   -3   -3   -2    0    2    5    8   11   14   17   19   21   22   22   21   20   18   15   11    6    0   -6  -14  -15  -16  -16  -17  -18  -19  -19  -20  -21  -22  -23  -24  -25  -26  -27  -28  -29  -30  -32  -33  -34  -35  -37  -38  -39  -41  -42  -43  -43  -41  -40  -39  -37  -36  -35  -33  -32  -31  -30  -29  -27  -26  -25  -24  -23  -22  -21  -21  -20  -19  -18  -17  -16  -16  -15  -14  -10   -2    4   10   15   19   22   24   25   26   25   24   22   20   17   13   10    6    3    0   -2   -3   -3   -2    0    3    6   10   13   17   20   22   24   25   26   25   24   22   19   15   10    4   -2  -10  -14  -15  -16  -16  -17  -18  -19  -20  -21  -21  -22  -23  -24  -25  -26  -27  -29  -30  -31  -32  -33  -35  -36  -37  -39  -40  -41  -43  -42  -41  -39  -38  -37  -35  -34  -33  -31  -30  -29  -28  -27  -26  -25  -24  -23  -22  -21  -20  -19  -18  -17  -17  -16  -15  -14  -14   -6    1    8   14   19   23   26   28   29   29   29   27   25   23   19   16   12    8    4    1   -1   -3   -3   -1    1    4    8   12   16   19   23   25   27   29   29   29   28   26   23   19   14    8    1   -6  -14  -14  -15  -16  -17  -17  -18  -19  -20  -21  -22  -23  -24  -25  -26  -27  -28  -29  -30  -31  -33  -34  -35  -37  -38  -39  -41  -42  -41  -40  -39  -37  -36  -35  -33  -32  -31  -30  -28  -27  -26  -25  -24  -23  -22  -21  -20  -19  -18  -18  -17  -16  -15  -14  -14  -12   -3    5   12   18   23   27   30   32   33   33   33   31   29   26   22   18   14   10    5    2   -1   -2   -2   -1    2    5   10   14   18   22   26   29   31   33   33   33   32   30   27   23   18   12    5   -3  -12  -14  -14  -15  -16  -17  -18  -18  -19  -20  -21  -22  -23  -24  -25  -26  -27  -28  -30  -31  -32  -33  -35  -36  -37  -39  -40  -41  -41  -39  -38  -37  -35  -34  -33  -31  -30  -29  -28  -27  -26  -25  -23  -22  -21  -20  -20  -19  -18  -17  -16  -15  -15  -14  -13   -8    1    9   16   22   27   31   34   36   37   38   37   35   32   29   25   21   16   11    7    3    0   -2   -2    0    3    7   11   16   21   25   29   32   35   37   38   37   36   34   31   27   22   16    9    1   -8  -13  -14  -15  -15  -16  -17  -18  -19  -20  -20  -21  -22  -23  -25  -26  -27  -28  -29  -30  -31  -33  -34  -35  -37  -38  -39  -41  -40  -39  -37  -36  -35  -33  -32  -31  -30  -28  -27  -26  -25  -24  -23  -22  -21  -20  -19  -18  -17  -16  -16  -15  -14  -13  -13   -4    5   13   20   27   32   36   39   41   42   42   41   39   36   33   29   24   19   13    8    4    0   -2   -2    0    4    8   13   19   24   29   33   36   39   41   42   42   41   39   36   32   27   20   13    5   -4  -13  -13  -14  -15  -16  -16  -17  -18  -19  -20  -21  -22  -23  -24  -25  -26  -27  -28  -30  -31  -32  -33  -35  -36  -37  -39  -40  -40  -38  -37  -36  -34  -33  -32  -30  -29  -28  -27  -26  -25  -23  -22  -21  -20  -19  -18  -18  -17  -16  -15  -14  -13  -13  -11    0    9   17   25   31   36   40   43   45   46   46   45   43   41   37   32   27   21   16   10    5    1   -1   -1    1    5   10   16   21   27   32   37   41   43   45   46   46   45   43   40   36   31   25   17    9    0  -11  -13  -13  -14  -15  -16  -17  -18  -18  -19  -20  -21  -22  -23  -25  -26  -27  -28  -29  -30  -32  -33  -34  -36  -37  -38  -40  -39  -38  -36  -35  -34  -32  -31  -30  -29  -27  -26  -25  -24  -23  -22  -21  -20  -19  -18  -17  -16  -15  -15  -14  -13  -12   -7    3   13   21   29   35   40   44   48   50   51   51   50   48   45   41   36   31   24   18   12    6    1   -1   -1    1    6   12   18   24   31   36   41   45   48   50   51   51   50   48   44   40   35   29   21   13    3   -7  -12  -13  -14  -15  -15  -16  -17  -18  -19  -20  -21  -22  -23  -24  -25  -26  -27  -29  -30  -31  -32  -34  -35  -36  -38  -39  -39  -37  -36  -35  -33  -32  -31  -29  -28  -27  -26  -25  -24  -22  -21  -20  -19  -18  -18  -17  -16  -15  -14  -13  -13  -12   -4    7   17   25   33   39   44   49   52   54   55   55   54   52   49   45   40   34   28   21   14    7    2   -1   -1    2    7   14   21   28   34   40   45   49   52   54   55   55   54   52   49   44   39   33   25   17    7   -4  -12  -13  -13  -14  -15  -16  -17  -18  -18  -19  -20  -21  -22  -24  -25  -26  -27  -28  -29  -31  -32  -33  -35  -36  -37  -39  -38  -37  -36  -34  -33  -32  -30  -29  -28  -27  -25  -24  -23  -22  -21  -20  -19  -18  -17  -16  -15  -14  -14  -13  -12  -11    0   11   20   29   37   43   49   53   56   59   60   60   59   57   54   50   45   38   31   24   16    9    3   -1   -1    3    9   16   24   31   38   45   50   54   57   59   60   60   59   56   53   49   43   37   29   20   11    0  -11  -12  -13  -14  -14  -15  -16  -17  -18  -19  -20  -21  -22  -23  -24  -25  -27  -28  -29  -30  -32  -33  -34  -36  -37  -38  -38  -37  -35  -34  -32  -31  -30  -29  -27  -26  -25  -24  -23  -22  -21  -20  -19  -18  -17  -16  -15  -14  -13  -12  -12   -9    3   14   24   33   40   47   53   57   61   63   65   65   64   62   59   55   49   43   35   27   19   11    4    0    0    4   11   19   27   35   43   49   55   59   62   64   65   65   63   61   57   53   47   40   33   24   14    3   -9  -12  -12  -13  -14  -15  -16  -17  -18  -19  -20  -21  -22  -23  -24  -25  -26  -27  -29  -30  -31  -32  -34  -35  -37  -38  -38  -36  -35  -33  -32  -31  -30  -28  -27  -26  -25  -24  -22  -21  -20  -19  -18  -17  -16  -15  -15  -14  -13  -12  -11   -6    6   17   27   36   44   51   57   61   65   68   69   70   69   67   64   59   54   47   39   31   22   13    5    0    0    5   13   22   31   39   47   54   59   64   67   69   70   69   68   65   61   57   51   44   36   27   17    6   -6  -11  -12  -13  -14  -15  -15  -16  -17  -18  -19  -20  -21  -22  -24  -25  -26  -27  -28  -30  -31  -32  -33  -35  -36  -38  -37  -36  -35  -33  -32  -30  -29  -28  -27  -25  -24  -23  -22  -21  -20  -19  -18  -17  -16  -15  -14  -13  -13  -12  -11   -3    9   20   30   39   47   54   60   65   69   72   74   74   73   72   69   64   59   52   44   35   25   15    6    0    0    6   15   25   35   44   52   59   64   69   72   73   74   74   72   69   65   60   54   47   39   30   20    9   -3  -11  -12  -13  -13  -14  -15  -16  -17  -18  -19  -20  -21  -22  -23  -24  -25  -27  -28  -29  -30  -32  -33  -35  -36  -37  -37  -36  -34  -33  -31  -30  -29  -28  -26  -25  -24  -23  -22  -21  -20  -19  -18  -17  -16  -15  -14  -13  -12  -11  -11   -1   12   23   33   43   51   58   64   69   73   76   78   79   78   76   73   69   64   57   48   39   29   18    7    0    0    7   18   29   39   48   57   64   69   73   76   78   79   78   76   73   69   64   58   51   43   33   23   12   -1  -11  -11  -12  -13  -14  -15  -16  -17  -18  -19  -20  -21  -22  -23  -24  -25  -26  -28  -29  -30  -31  -33  -34  -36  -37  -37  -35  -34  -33  -31  -30  -29  -27  -26  -25  -24  -23  -22  -20  -19  -18  -17  -16  -15  -15  -14  -13  -12  -11  -10    2   14   26   36   45   54   61   67   73   77   80   82   83   82   81   78   74   68   62   53   43   33   21    9    1    1    9   21   33   43   53   62   68   74   78   81   82   83   82   80   77   73   67   61   54   45   36   26   14    2  -10  -11  -12  -13  -14  -15  -15  -16  -17  -18  -19  -20  -22  -23  -24  -25  -26  -27  -29  -30  -31  -33  -34  -35  -37  -37  -35  -34  -32  -31  -30  -28  -27  -26  -25  -24  -22  -21  -20  -19  -18  -17  -16  -15  -14  -13  -13  -12  -11  -10    4   17   28   39   48   56   64   70   76   80   83   85   87   86   85   82   78   73   66   58   48   37   24   11    1    1   11   24   37   48   58   66   73   78   82   85   86   87   85   83   80   76   70   64   56   48   39   28   17    4  -10  -11  -12  -13  -13  -14  -15  -16  -17  -18  -19  -20  -21  -22  -24  -25  -26  -27  -28  -30  -31  -32  -34  -35  -37  -36  -35  -34  -32  -31  -29  -28  -27  -26  -25  -23  -22  -21  -20  -19  -18  -17  -16  -15  -14  -13  -12  -12  -11   -8    6   18   30   41   50   59   66   73   79   83   86   89   90   90   89   86   83   77   71   62   53   41   28   14    2    2   14   28   41   53   62   71   77   83   86   89   90   90   89   86   83   79   73   66   59   50   41   30   18    6   -8  -11  -12  -12  -13  -14  -15  -16  -17  -18  -19  -20  -21  -22  -23  -25  -26  -27  -28  -29  -31  -32  -34  -35  -36  -36  -35  -33  -32  -31  -29  -28  -27  -26  -24  -23  -22  -21  -20  -19  -18  -17  -16  -15  -14  -13  -12  -11  -11   -7    7   20   32   43   52   61   69   75   81   86   89   92   93   93   92   90   86   81   75   67   57   45   32   17    3    3   17   32   45   57   67   75   81   86   90   92   93   93   92   89   86   81   75   69   61   52   43   32   20    7   -7  -11  -11  -12  -13  -14  -15  -16  -17  -18  -19  -20  -21  -22  -23  -24  -26  -27  -28  -29  -31  -32  -33  -35  -36  -36  -35  -33  -32  -31  -29  -28  -27  -25  -24  -23  -22  -21  -20  -19  -18  -17  -16  -15  -14  -13  -12  -11  -10   -5    9   21   33   44   54   63   70   77   83   88   91   94   95   96   95   93   89   85   78   70   61   49   35   20    4    4   20   35   49   61   70   78   85   89   93   95   96   95   94   91   88   83   77   70   63   54   44   33   21    9   -5  -10  -11  -12  -13  -14  -15  -16  -17  -18  -19  -20  -21  -22  -23  -24  -25  -27  -28  -29  -31  -32  -33  -35  -36  -36  -35  -33  -32  -30  -29  -28  -27  -25  -24  -23  -22  -21  -20  -19  -18  -17  -16  -15  -14  -13  -12  -11  -10   -4   10   22   34   45   55   64   72   79   84   89   93   96   97   98   97   95   92   87   81   73   64   52   38   22    5    5   22   38   52   64   73   81   87   92   95   97   98   97   96   93   89   84   79   72   64   55   45   34   22   10   -4  -10  -11  -12  -13  -14  -15  -16  -17  -18  -19  -20  -21  -22  -23  -24  -25  -27  -28  -29  -30  -32  -33  -35  -36  -36  -34  -33  -32  -30  -29  -28  -26  -25  -24  -23  -22  -21  -20  -18  -17  -16  -16  -15  -14  -13  -12  -11  -10   -4   10   23   35   46   56   65   73   80   85   90   94   97   99   99   99   97   94   89   83   75   66   54   41   24    6    6   24   41   54   66   75   83   89   94   97   99   99   99   97   94   90   85   80   73   65   56   46   35   23   10   -4  -10  -11  -12  -13  -14  -15  -16  -16  -17  -18  -20  -21  -22  -23  -24  -25  -26  -28  -29  -30  -32  -33  -34  -36  -36  -34  -33  -32  -30  -29  -28  -26  -25  -24  -23  -22  -21  -20  -18  -17  -16  -15  -15  -14  -13  -12  -11  -10   -3   11   24   35   46   56   65   73   80   86   91   95   98   99  100   99   98   94   90   84   76   67   55   42   26    7    7   26   42   55   67   76   84   90   94   98   99  100   99   98   95   91   86   80   73   65   56   46   35   24   11   -3  -10  -11  -12  -13  -14  -15  -15  -16  -17  -18  -20  -21  -22  -23  -24  -25  -26  -28  -29  -30  -32  -33  -34  -36  -36  -34  -33  -32  -30  -29  -28  -26  -25  -24  -23  -22  -21  -20  -18  -17  -16  -15  -15  -14  -13  -12  -11  -10   -3   11   24   35   46   56   65   73   80   86   91   95   98   99  100   99   98   94   90   84   76   67   55   42   26    7    7   26   42   55   67   76   84   90   94   98   99  100   99   98   95   91   86   80   73   65   56   46   35   24   11   -3  -10  -11  -12  -13  -14  -15  -15  -16  -17  -18  -20  -21  -22  -23  -24  -25  -26  -28  -29  -30  -32  -33  -34  -36  -36  -34  -33  -32  -30  -29  -28  -26  -25  -24  -23  -22  -21  -20  -18  -17  -16  -16  -15  -14  -13  -12  -11  -10   -4   10   23   35   46   56   65   73   80   85   90   94   97   99   99   99   97   94   89   83   75   66   54   41   24    6    6   24   41   54   66   75   83   89   94   97   99   99   99   97   94   90   85   80   73   65   56   46   35   23   10   -4  -10  -11  -12  -13  -14  -15  -16  -16  -17  -18  -20  -21  -22  -23  -24  -25  -26  -28  -29  -30  -32  -33  -34  -36  -36  -35  -33  -32  -30  -29  -28  -27  -25  -24  -23  -22  -21  -20  -19  -18  -17  -16  -15  -14  -13  -12  -11  -10   -4   10   22   34   45   55   64   72   79   84   89   93   96   97   98   97   95   92   87   81   73   64   52   38   22    5    5   22   38   52   64   73   81   87   92   95   97   98   97   96   93   89   84   79   72   64   55   45   34   22   10   -4  -10  -11  -12  -13  -14  -15  -16  -17  -18  -19  -20  -21  -22  -23  -24  -25  -27  -28  -29  -30  -32  -33  -35  -36  -36  -35  -33  -32  -31  -29  -28  -27  -25  -24  -23  -22  -21  -20  -19  -18  -17  -16  -15  -14  -13  -12  -11  -10   -5    9   21   33   44   54   63   70   77   83   88   91   94   95   96   95   93   89   85   78   70   61   49   35   20    4    4   20   35   49   61   70   78   85   89   93   95   96   95   94   91   88   83   77   70   63   54   44   33   21    9   -5  -10  -11  -12  -13  -14  -15  -16  -17  -18  -19  -20  -21  -22  -23  -24  -25  -27  -28  -29  -31  -32  -33  -35  -36  -36  -35  -33  -32  -31  -29  -28  -27  -26  -24  -23  -22  -21  -20  -19  -18  -17  -16  -15  -14  -13  -12  -11  -11   -7    7   20   32   43   52   61   69   75   81   86   89   92   93   93   92   90   86   81   75   67   57   45   32   17    3    3   17   32   45   57   67   75   81   86   90   92   93   93   92   89   86   81   75   69   61   52   43   32   20    7   -7  -11  -11  -12  -13  -14  -15  -16  -17  -18  -19  -20  -21  -22  -23  -24  -26  -27  -28  -29  -31  -32  -33  -35  -36  -36  -35  -34  -32  -31  -29  -28  -27  -26  -25  -23  -22  -21  -20  -19  -18  -17  -16  -15  -14  -13  -12  -12  -11   -8    6   18   30   41   50   59   66   73   79   83   86   89   90   90   89   86   83   77   71   62   53   41   28   14    2    2   14   28   41   53   62   71   77   83   86   89   90   90   89   86   83   79   73   66   59   50   41   30   18    6   -8  -11  -12  -12  -13  -14  -15  -16  -17  -18  -19  -20  -21  -22  -23  -25  -26  -27  -28  -29  -31  -32  -34  -35  -36  -37  -35  -34  -32  -31  -30  -28  -27  -26  -25  -24  -22  -21  -20  -19  -18  -17  -16  -15  -14  -13  -13  -12  -11  -10    4   17   28   39   48   56   64   70   76   80   83   85   87   86   85   82   78   73   66   58   48   37   24   11    1    1   11   24   37   48   58   66   73   78   82   85   86   87   85   83   80   76   70   64   56   48   39   28   17    4  -10  -11  -12  -13  -13  -14  -15  -16  -17  -18  -19  -20  -21  -22  -24  -25  -26  -27  -28  -30  -31  -32  -34  -35  -37  -37  -35  -34  -33  -31  -30  -29  -27  -26  -25  -24  -23  -22  -20  -19  -18  -17  -16  -15  -15  -14  -13  -12  -11  -10    2   14   26   36   45   54   61   67   73   77   80   82   83   82   81   78   74   68   62   53   43   33   21    9    1    1    9   21   33   43   53   62   68   74   78   81   82   83   82   80   77   73   67   61   54   45   36   26   14    2  -10  -11  -12  -13  -14  -15  -15  -16  -17  -18  -19  -20  -22  -23  -24  -25  -26  -27  -29  -30  -31  -33  -34  -35  -37  -37  -36  -34  -33  -31  -30  -29  -28  -26  -25  -24  -23  -22  -21  -20  -19  -18  -17  -16  -15  -14  -13  -12  -11  -11   -1   12   23   33   43   51   58   64   69   73   76   78   79   78   76   73   69   64   57   48   39   29   18    7    0    0    7   18   29   39   48   57   64   69   73   76   78   79   78   76   73   69   64   58   51   43   33   23   12   -1  -11  -11  -12  -13  -14  -15  -16  -17  -18  -19  -20  -21  -22  -23  -24  -25  -26  -28  -29  -30  -31  -33  -34  -36  -37  -37  -36  -35  -33  -32  -30  -29  -28  -27  -25  -24  -23  -22  -21  -20  -19  -18  -17  -16  -15  -14  -13  -13  -12  -11   -3    9   20   30   39   47   54   60   65   69   72   74   74   73   72   69   64   59   52   44   35   25   15    6    0    0    6   15   25   35   44   52   59   64   69   72  